/*--------------------------------*- C++ -*----------------------------------*\
  =========                 |
  \\      /  F ield         | OpenFOAM: The Open Source CFD Toolbox
   \\    /   O peration     | Website:  https://openfoam.org
    \\  /    A nd           | Version:  dev
     \\/     M anipulation  |
\*---------------------------------------------------------------------------*/
FoamFile
{
    version     2.0;
    format      ascii;
    class       volScalarField;
    location    "10";
    object      phi;
}
// * * * * * * * * * * * * * * * * * * * * * * * * * * * * * * * * * * * * * //

dimensions      [1 2 -3 0 0 -1 0];

internalField   nonuniform List<scalar> 
300000
(
5.78028
5.78704
5.79714
5.81303
5.85187
5.93467
6.06094
6.20725
6.35317
6.48756
6.6057
6.70609
6.78894
6.85539
6.90722
6.94663
6.97607
6.9979
7.01422
7.0267
7.03658
7.04474
7.05168
7.05769
7.0629
7.06732
7.07096
7.07387
7.07613
7.0779
7.0793
7.08043
7.08137
7.08215
7.08282
7.08341
7.08394
7.08442
7.08485
7.08524
7.08558
7.08587
7.08612
7.08632
7.08649
7.08661
7.0867
7.08677
7.0868
7.08681
7.0868
7.08677
7.08672
7.08665
7.08656
7.08643
7.08628
7.08608
7.08583
7.08553
7.08517
7.08475
7.08427
7.08373
7.08311
7.08243
7.08167
7.08082
7.07987
7.07879
7.07754
7.07607
7.07429
7.0721
7.0694
7.06605
7.06191
7.05685
7.05072
7.04336
7.03453
7.02392
7.01101
6.99508
6.97505
6.94958
6.91699
6.87546
6.82315
6.75846
6.68027
6.58827
6.48327
6.36747
6.24469
6.12047
6.002
5.89804
5.81876
5.77493
5.78704
5.78453
5.77322
5.75624
5.76223
5.8463
6.00853
6.19135
6.36222
6.51101
6.63677
6.74099
6.82563
6.89284
6.94492
6.98434
7.0137
7.03543
7.05165
7.06405
7.07389
7.08202
7.08896
7.09498
7.10019
7.10463
7.10827
7.11117
7.11342
7.11518
7.11658
7.11771
7.11864
7.11942
7.12009
7.12068
7.12121
7.12169
7.12213
7.12251
7.12285
7.12315
7.12339
7.1236
7.12377
7.12389
7.12398
7.12404
7.12408
7.12408
7.12407
7.12404
7.12399
7.12393
7.12383
7.12371
7.12355
7.12335
7.12311
7.12281
7.12245
7.12203
7.12155
7.121
7.12038
7.1197
7.11894
7.11809
7.11714
7.11606
7.11481
7.11334
7.11156
7.10939
7.10669
7.10334
7.0992
7.09414
7.088
7.08063
7.07181
7.06121
7.04835
7.03247
7.01254
6.98717
6.95468
6.91322
6.86089
6.79603
6.71747
6.62485
6.51893
6.40189
6.27757
6.15155
6.03114
5.92521
5.84411
5.79897
5.79714
5.77322
5.71072
5.60049
5.49045
5.57548
5.85926
6.14179
6.37084
6.54947
6.68969
6.80071
6.88841
6.95685
7.00928
7.04869
7.07788
7.09941
7.11545
7.12771
7.13746
7.14554
7.15245
7.15847
7.16369
7.16813
7.17177
7.17466
7.1769
7.17864
7.18003
7.18115
7.18208
7.18286
7.18352
7.18411
7.18464
7.18512
7.18556
7.18595
7.18629
7.18658
7.18683
7.18703
7.1872
7.18733
7.18742
7.18748
7.18751
7.18752
7.18751
7.18748
7.18743
7.18736
7.18727
7.18714
7.18699
7.18679
7.18654
7.18624
7.18588
7.18546
7.18497
7.18442
7.18381
7.18312
7.18236
7.18151
7.18056
7.17949
7.17825
7.17678
7.17501
7.17284
7.17015
7.16681
7.16267
7.15761
7.15147
7.1441
7.1353
7.12474
7.11196
7.0962
7.07643
7.05124
7.01893
6.97755
6.92516
6.86
6.7808
6.68711
6.57961
6.46048
6.33357
6.20454
6.08088
5.97179
5.88804
5.84132
5.81303
5.75624
5.60049
5.27211
4.75443
4.83478
5.5357
6.04602
6.37693
6.59909
6.75785
6.87677
6.96774
7.03738
7.09011
7.12942
7.15839
7.17966
7.19547
7.20756
7.21719
7.2252
7.23208
7.23808
7.24331
7.24775
7.25138
7.25425
7.25647
7.25819
7.25957
7.26069
7.26161
7.26238
7.26304
7.26363
7.26416
7.26464
7.26508
7.26547
7.26581
7.2661
7.26635
7.26656
7.26672
7.26685
7.26694
7.267
7.26703
7.26704
7.26703
7.267
7.26695
7.26688
7.26679
7.26667
7.26651
7.26631
7.26606
7.26576
7.2654
7.26498
7.26449
7.26394
7.26332
7.26264
7.26187
7.26102
7.26008
7.25901
7.25777
7.25631
7.25455
7.25239
7.24971
7.24637
7.24224
7.23717
7.23103
7.22367
7.21488
7.20437
7.19168
7.17606
7.15647
7.13149
7.09936
7.05809
7.00563
6.94011
6.86016
6.76523
6.65591
6.53436
6.40447
6.272
6.14462
6.03185
5.94498
5.8963
5.85187
5.76223
5.49045
4.75443
2.59335
2.63847
5.019
5.94995
6.40513
6.6687
6.84247
6.96705
7.06008
7.13029
7.18297
7.22202
7.25065
7.27161
7.28715
7.29903
7.30852
7.31645
7.32328
7.32927
7.33448
7.33892
7.34254
7.34539
7.34758
7.34929
7.35066
7.35177
7.35268
7.35345
7.3541
7.35469
7.35522
7.35571
7.35614
7.35653
7.35687
7.35717
7.35742
7.35762
7.35779
7.35791
7.358
7.35806
7.35809
7.3581
7.35809
7.35806
7.35801
7.35794
7.35785
7.35773
7.35757
7.35737
7.35712
7.35682
7.35646
7.35604
7.35555
7.355
7.35438
7.35369
7.35293
7.35208
7.35113
7.35006
7.34883
7.34738
7.34563
7.34348
7.3408
7.33747
7.33334
7.32827
7.32213
7.31477
7.30601
7.29554
7.28293
7.26745
7.24804
7.22327
7.19134
7.15017
7.09763
7.03175
6.95105
6.85486
6.74372
6.61973
6.48682
6.35087
6.21974
6.10333
6.01343
5.96297
5.93467
5.8463
5.57548
4.83478
2.63847
2.6863
5.10952
6.04953
6.50751
6.77211
6.94613
7.07051
7.16309
7.23274
7.28485
7.32336
7.35152
7.37208
7.3873
7.39896
7.40831
7.41614
7.42292
7.42887
7.43407
7.4385
7.4421
7.44492
7.44709
7.44879
7.45014
7.45124
7.45215
7.45291
7.45356
7.45415
7.45468
7.45516
7.4556
7.45599
7.45633
7.45662
7.45687
7.45708
7.45724
7.45737
7.45746
7.45751
7.45754
7.45755
7.45754
7.45751
7.45746
7.45739
7.4573
7.45718
7.45703
7.45683
7.45658
7.45627
7.45591
7.45549
7.455
7.45445
7.45383
7.45314
7.45237
7.45152
7.45058
7.44951
7.44829
7.44684
7.4451
7.44296
7.44029
7.43696
7.43283
7.42776
7.42162
7.41427
7.40551
7.39509
7.38255
7.36719
7.34795
7.32338
7.29164
7.25059
7.19801
7.13183
7.05045
6.95313
6.84031
6.71408
6.57837
6.43916
6.30453
6.18466
6.09185
6.03965
6.06094
6.00853
5.85926
5.5357
5.019
5.10952
5.82755
6.34686
6.6825
6.90681
7.06597
7.18412
7.27365
7.34155
7.39251
7.4302
7.45774
7.47783
7.4927
7.50411
7.5133
7.52104
7.52775
7.53367
7.53885
7.54325
7.54682
7.54962
7.55177
7.55344
7.55478
7.55587
7.55677
7.55753
7.55818
7.55876
7.55929
7.55977
7.56021
7.5606
7.56094
7.56124
7.56148
7.56169
7.56185
7.56198
7.56207
7.56213
7.56216
7.56216
7.56215
7.56212
7.56207
7.562
7.56191
7.56179
7.56164
7.56144
7.56119
7.56089
7.56052
7.5601
7.55961
7.55905
7.55843
7.55774
7.55698
7.55613
7.55518
7.55412
7.5529
7.55146
7.54972
7.54759
7.54493
7.54161
7.53748
7.53241
7.52627
7.51891
7.51017
7.49978
7.48731
7.47205
7.45297
7.42859
7.39704
7.35613
7.30356
7.23716
7.15525
7.05697
6.94273
6.81455
6.6764
6.53433
6.39657
6.27362
6.17822
6.12446
6.20725
6.19135
6.14179
6.04602
5.94995
6.04953
6.34686
6.63835
6.8724
7.05304
7.19302
7.30223
7.38723
7.45259
7.50199
7.53863
7.56544
7.58499
7.59949
7.61066
7.61968
7.62731
7.63396
7.63983
7.64497
7.64935
7.6529
7.65566
7.65778
7.65944
7.66077
7.66185
7.66274
7.66349
7.66414
7.66471
7.66524
7.66573
7.66616
7.66655
7.66689
7.66719
7.66744
7.66764
7.66781
7.66793
7.66802
7.66808
7.66811
7.66811
7.6681
7.66807
7.66802
7.66795
7.66786
7.66774
7.66759
7.66739
7.66714
7.66683
7.66647
7.66604
7.66555
7.665
7.66437
7.66368
7.66292
7.66207
7.66113
7.66007
7.65885
7.65741
7.65568
7.65356
7.65091
7.64759
7.64347
7.6384
7.63225
7.62489
7.61616
7.60579
7.59336
7.5782
7.55925
7.53504
7.50369
7.46295
7.41044
7.34393
7.26164
7.16265
7.04727
6.91752
6.77736
6.6329
6.49252
6.36695
6.26932
6.21419
6.35317
6.36222
6.37084
6.37693
6.40513
6.50751
6.6825
6.8724
7.04606
7.19462
7.31805
7.41855
7.49876
7.56132
7.60898
7.64447
7.67048
7.68948
7.7036
7.71451
7.72338
7.73089
7.73747
7.74329
7.7484
7.75274
7.75625
7.75899
7.76108
7.76272
7.76403
7.76511
7.76599
7.76673
7.76737
7.76795
7.76848
7.76896
7.7694
7.76979
7.77013
7.77042
7.77067
7.77087
7.77104
7.77116
7.77125
7.77131
7.77134
7.77134
7.77133
7.7713
7.77125
7.77118
7.77109
7.77097
7.77082
7.77062
7.77037
7.77006
7.7697
7.76927
7.76878
7.76822
7.7676
7.76691
7.76614
7.76529
7.76435
7.76329
7.76208
7.76065
7.75893
7.7568
7.75416
7.75085
7.74673
7.74166
7.73551
7.72815
7.71942
7.70906
7.69667
7.68157
7.66274
7.63869
7.60752
7.56696
7.51459
7.44807
7.36557
7.26609
7.1499
7.01897
6.87726
6.73094
6.58848
6.46082
6.3614
6.30515
6.48756
6.51101
6.54947
6.59909
6.6687
6.77211
6.90681
7.05304
7.19462
7.32292
7.43426
7.52764
7.60357
7.66348
7.70942
7.74377
7.76898
7.78743
7.80119
7.81187
7.82057
7.82797
7.83447
7.84024
7.84531
7.84961
7.85309
7.85579
7.85786
7.85948
7.86078
7.86184
7.86272
7.86345
7.86409
7.86467
7.86519
7.86568
7.86611
7.8665
7.86684
7.86713
7.86738
7.86758
7.86775
7.86787
7.86796
7.86801
7.86804
7.86805
7.86803
7.868
7.86796
7.86789
7.8678
7.86768
7.86752
7.86732
7.86707
7.86677
7.8664
7.86598
7.86548
7.86493
7.8643
7.86361
7.86284
7.86199
7.86105
7.85999
7.85878
7.85735
7.85564
7.85352
7.85089
7.84758
7.84347
7.8384
7.83225
7.82488
7.81615
7.80579
7.79342
7.77837
7.75963
7.73572
7.70473
7.66436
7.61215
7.54573
7.46317
7.36342
7.24671
7.11497
6.97218
6.82452
6.68054
6.55133
6.45056
6.39346
6.6057
6.63677
6.68969
6.75785
6.84247
6.94613
7.06597
7.19302
7.31805
7.43426
7.53745
7.6255
7.69796
7.75557
7.79997
7.83324
7.85771
7.87566
7.88909
7.89954
7.90809
7.91538
7.9218
7.92752
7.93254
7.9368
7.94023
7.9429
7.94495
7.94655
7.94784
7.94889
7.94976
7.95049
7.95112
7.95169
7.95222
7.9527
7.95313
7.95352
7.95386
7.95415
7.9544
7.9546
7.95477
7.95489
7.95498
7.95503
7.95506
7.95507
7.95505
7.95502
7.95497
7.95491
7.95482
7.9547
7.95454
7.95434
7.95409
7.95379
7.95342
7.95299
7.9525
7.95194
7.95132
7.95062
7.94985
7.949
7.94806
7.947
7.94579
7.94437
7.94266
7.94056
7.93792
7.93462
7.93051
7.92545
7.9193
7.91193
7.90318
7.89283
7.88046
7.86545
7.84677
7.82297
7.79214
7.75196
7.69995
7.63368
7.55119
7.45136
7.33439
7.2022
7.05873
6.9102
6.76522
6.63497
6.5333
6.4756
6.70609
6.74099
6.80071
6.87677
6.96705
7.07051
7.18412
7.30223
7.41855
7.52764
7.6255
7.70975
7.77952
7.83526
7.87833
7.91067
7.9345
7.95201
7.96513
7.97538
7.98378
7.99097
7.99732
8.00298
8.00795
8.01215
8.01555
8.01819
8.02021
8.0218
8.02307
8.02411
8.02497
8.02569
8.02633
8.0269
8.02742
8.0279
8.02833
8.02872
8.02906
8.02935
8.0296
8.0298
8.02996
8.03008
8.03017
8.03023
8.03025
8.03026
8.03024
8.03021
8.03017
8.0301
8.03001
8.02989
8.02973
8.02954
8.02929
8.02898
8.02861
8.02818
8.02769
8.02713
8.0265
8.02581
8.02504
8.02419
8.02325
8.02219
8.02098
8.01956
8.01786
8.01576
8.01313
8.00984
8.00573
8.00067
7.99452
7.98714
7.97839
7.96803
7.95566
7.94066
7.92203
7.89831
7.86761
7.82761
7.7758
7.70973
7.6274
7.52764
7.41063
7.27825
7.13446
6.98547
6.83994
6.70911
6.60691
6.54887
6.78894
6.82563
6.88841
6.96774
7.06008
7.16309
7.27365
7.38723
7.49876
7.60357
7.69796
7.77952
7.84729
7.90156
7.94355
7.97511
7.99839
8.01553
8.0284
8.03846
8.04672
8.05381
8.06009
8.06569
8.0706
8.07476
8.07812
8.08073
8.08273
8.0843
8.08556
8.08659
8.08744
8.08816
8.08879
8.08936
8.08988
8.09036
8.09079
8.09117
8.09151
8.0918
8.09205
8.09225
8.09241
8.09253
8.09262
8.09267
8.0927
8.09271
8.09269
8.09266
8.09261
8.09255
8.09246
8.09234
8.09218
8.09198
8.09173
8.09143
8.09106
8.09063
8.09014
8.08958
8.08895
8.08825
8.08748
8.08663
8.08569
8.08463
8.08343
8.08201
8.08031
8.07821
8.07559
8.07231
8.0682
8.06314
8.05699
8.04962
8.04086
8.03049
8.01811
8.00311
7.9845
7.96084
7.93024
7.89039
7.83878
7.77292
7.6908
7.59122
7.47431
7.34196
7.19811
7.04898
6.90326
6.77219
6.66978
6.61159
6.85539
6.89284
6.95685
7.03738
7.13029
7.23274
7.34155
7.45259
7.56132
7.66348
7.75557
7.83526
7.90156
7.95469
7.99582
8.02677
8.04962
8.06645
8.07909
8.08899
8.09713
8.10413
8.11033
8.11587
8.12073
8.12484
8.12816
8.13074
8.13273
8.13428
8.13553
8.13655
8.13739
8.1381
8.13873
8.1393
8.13982
8.14029
8.14072
8.14111
8.14144
8.14173
8.14198
8.14218
8.14234
8.14246
8.14255
8.1426
8.14263
8.14263
8.14262
8.14259
8.14254
8.14247
8.14238
8.14227
8.14211
8.14191
8.14166
8.14136
8.14099
8.14056
8.14006
8.1395
8.13887
8.13817
8.1374
8.13655
8.13561
8.13455
8.13335
8.13193
8.13023
8.12814
8.12553
8.12225
8.11815
8.1131
8.10695
8.09957
8.09081
8.08042
8.06804
8.05303
8.03442
8.01079
7.98026
7.94053
7.88908
7.82344
7.74154
7.64219
7.52549
7.3933
7.24957
7.10053
6.95486
6.82383
6.72143
6.66323
6.90722
6.94492
7.00928
7.09011
7.18297
7.28485
7.39251
7.50199
7.60898
7.70942
7.79997
7.87833
7.94355
7.99582
8.03631
8.06679
8.0893
8.10587
8.11833
8.12808
8.13611
8.14303
8.14916
8.15463
8.15944
8.16351
8.1668
8.16935
8.17132
8.17285
8.17409
8.1751
8.17593
8.17664
8.17727
8.17783
8.17835
8.17882
8.17925
8.17964
8.17997
8.18026
8.18051
8.18071
8.18087
8.18099
8.18107
8.18112
8.18115
8.18116
8.18114
8.18111
8.18106
8.181
8.18091
8.18079
8.18063
8.18043
8.18018
8.17988
8.17951
8.17908
8.17858
8.17802
8.17739
8.17669
8.17592
8.17507
8.17413
8.17307
8.17186
8.17045
8.16876
8.16667
8.16406
8.16078
8.15669
8.15164
8.1455
8.13812
8.12935
8.11896
8.10656
8.09154
8.07292
8.0493
8.01881
7.97917
7.92785
7.86238
7.78071
7.6816
7.56514
7.4332
7.2897
7.14087
6.99541
6.86456
6.76232
6.70422
6.94663
6.98434
7.04869
7.12942
7.22202
7.32336
7.4302
7.53863
7.64447
7.74377
7.83324
7.91067
7.97511
8.02677
8.06679
8.09691
8.11915
8.13552
8.14781
8.15744
8.16537
8.17221
8.17827
8.18368
8.18844
8.19247
8.19573
8.19826
8.2002
8.20173
8.20295
8.20395
8.20478
8.20549
8.20611
8.20667
8.20718
8.20766
8.20809
8.20847
8.2088
8.20909
8.20934
8.20954
8.20969
8.20981
8.2099
8.20995
8.20998
8.20998
8.20997
8.20994
8.20989
8.20982
8.20973
8.20961
8.20946
8.20926
8.20901
8.2087
8.20834
8.2079
8.20741
8.20685
8.20621
8.20552
8.20474
8.20389
8.20295
8.20189
8.20068
8.19927
8.19758
8.19549
8.19289
8.18962
8.18553
8.18049
8.17434
8.16697
8.1582
8.14781
8.1354
8.12036
8.10172
8.07809
8.04762
8.00802
7.95679
7.89147
7.80998
7.7111
7.59489
7.46321
7.31998
7.17143
7.02624
6.89567
6.79365
6.73569
6.97607
7.0137
7.07788
7.15839
7.25065
7.35152
7.45774
7.56544
7.67048
7.76898
7.85771
7.9345
7.99839
8.04962
8.0893
8.11915
8.14117
8.15737
8.16953
8.17905
8.18689
8.19366
8.19965
8.20501
8.20972
8.21371
8.21694
8.21945
8.22138
8.22289
8.2241
8.2251
8.22592
8.22662
8.22724
8.2278
8.22831
8.22878
8.22921
8.22959
8.22993
8.23021
8.23046
8.23066
8.23081
8.23093
8.23102
8.23107
8.23109
8.2311
8.23108
8.23105
8.23101
8.23094
8.23085
8.23073
8.23058
8.23038
8.23013
8.22982
8.22945
8.22902
8.22852
8.22796
8.22733
8.22663
8.22586
8.225
8.22406
8.223
8.22179
8.22038
8.21869
8.21661
8.21401
8.21074
8.20666
8.20162
8.19548
8.18811
8.17935
8.16895
8.15653
8.14148
8.12282
8.09918
8.06869
8.02911
7.97793
7.9127
7.83136
7.73266
7.61668
7.48525
7.34229
7.19402
7.04912
6.91882
6.81705
6.75925
6.9979
7.03543
7.09941
7.17966
7.27161
7.37208
7.47783
7.58499
7.68948
7.78743
7.87566
7.95201
8.01553
8.06645
8.10587
8.13552
8.15737
8.17343
8.18547
8.1949
8.20267
8.20936
8.21529
8.22059
8.22527
8.22923
8.23243
8.23493
8.23684
8.23834
8.23954
8.24053
8.24135
8.24205
8.24266
8.24322
8.24373
8.2442
8.24462
8.245
8.24534
8.24562
8.24587
8.24607
8.24622
8.24634
8.24642
8.24648
8.2465
8.2465
8.24649
8.24646
8.24641
8.24634
8.24626
8.24614
8.24598
8.24578
8.24553
8.24523
8.24486
8.24443
8.24393
8.24337
8.24273
8.24203
8.24126
8.2404
8.23946
8.2384
8.23719
8.23578
8.23409
8.23201
8.22941
8.22615
8.22207
8.21704
8.21091
8.20354
8.19478
8.18438
8.17196
8.1569
8.13823
8.11456
8.08406
8.04446
7.9933
7.92812
7.84687
7.74831
7.63251
7.50128
7.35855
7.21054
7.06589
6.93585
6.83429
6.77664
7.01422
7.05165
7.11545
7.19547
7.28715
7.3873
7.4927
7.59949
7.7036
7.80119
7.88909
7.96513
8.0284
8.07909
8.11833
8.14781
8.16953
8.18547
8.19743
8.20677
8.21446
8.22109
8.22696
8.23222
8.23686
8.2408
8.24398
8.24645
8.24836
8.24984
8.25104
8.25202
8.25283
8.25353
8.25414
8.25469
8.2552
8.25567
8.2561
8.25647
8.25681
8.25709
8.25733
8.25753
8.25769
8.25781
8.25789
8.25794
8.25796
8.25797
8.25795
8.25792
8.25787
8.25781
8.25772
8.2576
8.25745
8.25725
8.257
8.25669
8.25632
8.25589
8.25539
8.25483
8.2542
8.25349
8.25272
8.25186
8.25092
8.24986
8.24865
8.24724
8.24555
8.24347
8.24087
8.23761
8.23354
8.22851
8.22239
8.21503
8.20627
8.19588
8.18346
8.16839
8.14971
8.12602
8.09549
8.05588
8.0047
7.93954
7.85833
7.75985
7.64417
7.5131
7.37055
7.22273
7.07829
6.94845
6.84706
6.78953
7.0267
7.06405
7.12771
7.20756
7.29903
7.39896
7.50411
7.61066
7.71451
7.81187
7.89954
7.97538
8.03846
8.08899
8.12808
8.15744
8.17905
8.1949
8.20677
8.21604
8.22366
8.23023
8.23606
8.24128
8.24589
8.2498
8.25297
8.25543
8.25731
8.25879
8.25998
8.26095
8.26177
8.26246
8.26307
8.26362
8.26413
8.26459
8.26502
8.26539
8.26572
8.26601
8.26625
8.26645
8.2666
8.26672
8.2668
8.26685
8.26688
8.26688
8.26687
8.26683
8.26679
8.26672
8.26663
8.26651
8.26636
8.26616
8.26591
8.2656
8.26524
8.2648
8.26431
8.26374
8.26311
8.2624
8.26163
8.26077
8.25982
8.25876
8.25756
8.25615
8.25445
8.25238
8.24978
8.24653
8.24246
8.23743
8.23131
8.22395
8.2152
8.20482
8.1924
8.17734
8.15865
8.13495
8.1044
8.06476
8.01356
7.94838
7.86717
7.76873
7.65311
7.52214
7.37971
7.23204
7.08775
6.95804
6.85677
6.79931
7.03658
7.07389
7.13746
7.21719
7.30852
7.40831
7.5133
7.61968
7.72338
7.82057
7.90809
7.98378
8.04672
8.09713
8.13611
8.16537
8.18689
8.20267
8.21446
8.22366
8.23123
8.23775
8.24354
8.24873
8.25331
8.2572
8.26035
8.2628
8.26467
8.26614
8.26733
8.2683
8.26911
8.26979
8.2704
8.27095
8.27145
8.27192
8.27234
8.27272
8.27305
8.27333
8.27357
8.27377
8.27392
8.27404
8.27412
8.27417
8.2742
8.2742
8.27418
8.27415
8.27411
8.27404
8.27395
8.27383
8.27368
8.27348
8.27323
8.27292
8.27256
8.27212
8.27162
8.27106
8.27042
8.26972
8.26894
8.26809
8.26714
8.26608
8.26487
8.26346
8.26177
8.25969
8.25709
8.25384
8.24978
8.24475
8.23863
8.23129
8.22254
8.21216
8.19975
8.18469
8.16601
8.1423
8.11174
8.07207
8.02085
7.95564
7.87441
7.77596
7.66036
7.52943
7.38707
7.23948
7.09529
6.96567
6.86447
6.80706
7.04474
7.08202
7.14554
7.2252
7.31645
7.41614
7.52104
7.62731
7.73089
7.82797
7.91538
7.99097
8.05381
8.10413
8.14303
8.17221
8.19366
8.20936
8.22109
8.23023
8.23775
8.24423
8.24999
8.25515
8.25971
8.26359
8.26672
8.26915
8.27102
8.27248
8.27366
8.27463
8.27543
8.27612
8.27672
8.27727
8.27777
8.27824
8.27866
8.27903
8.27936
8.27964
8.27988
8.28008
8.28023
8.28035
8.28043
8.28048
8.28051
8.28051
8.28049
8.28046
8.28041
8.28035
8.28026
8.28014
8.27999
8.27979
8.27954
8.27923
8.27886
8.27843
8.27793
8.27737
8.27673
8.27603
8.27525
8.27439
8.27344
8.27238
8.27117
8.26976
8.26807
8.26599
8.2634
8.26014
8.25608
8.25106
8.24495
8.2376
8.22886
8.21849
8.20609
8.19103
8.17235
8.14865
8.11808
8.07841
8.02716
7.96192
7.88066
7.78219
7.66657
7.53564
7.3933
7.24574
7.10159
6.97202
6.87086
6.81348
7.05168
7.08896
7.15245
7.23208
7.32328
7.42292
7.52775
7.63396
7.73747
7.83447
7.9218
7.99732
8.06009
8.11033
8.14916
8.17827
8.19965
8.21529
8.22696
8.23606
8.24354
8.24999
8.25572
8.26086
8.2654
8.26926
8.27238
8.27481
8.27667
8.27812
8.2793
8.28026
8.28106
8.28174
8.28234
8.28289
8.28339
8.28386
8.28428
8.28465
8.28498
8.28526
8.2855
8.28569
8.28585
8.28596
8.28604
8.28609
8.28612
8.28612
8.28611
8.28607
8.28603
8.28596
8.28587
8.28575
8.2856
8.2854
8.28515
8.28484
8.28448
8.28404
8.28354
8.28298
8.28234
8.28164
8.28086
8.28
8.27905
8.27799
8.27678
8.27537
8.27367
8.27159
8.269
8.26575
8.26169
8.25667
8.25056
8.24322
8.23448
8.22411
8.21172
8.19667
8.178
8.15431
8.12374
8.08407
8.03281
7.96755
7.88626
7.78775
7.6721
7.54114
7.39879
7.25122
7.10708
6.97752
6.87637
6.819
7.05769
7.09498
7.15847
7.23808
7.32927
7.42887
7.53367
7.63983
7.74329
7.84024
7.92752
8.00298
8.06569
8.11587
8.15463
8.18368
8.20501
8.22059
8.23222
8.24128
8.24873
8.25515
8.26086
8.26598
8.27051
8.27436
8.27747
8.27989
8.28174
8.28319
8.28436
8.28532
8.28612
8.2868
8.2874
8.28794
8.28844
8.2889
8.28932
8.28969
8.29002
8.2903
8.29054
8.29073
8.29089
8.291
8.29108
8.29113
8.29116
8.29116
8.29114
8.29111
8.29106
8.291
8.29091
8.29079
8.29064
8.29044
8.29019
8.28988
8.28952
8.28908
8.28858
8.28802
8.28738
8.28668
8.2859
8.28504
8.28409
8.28303
8.28181
8.2804
8.2787
8.27663
8.27403
8.27078
8.26672
8.26171
8.2556
8.24826
8.23953
8.22916
8.21677
8.20173
8.18307
8.15939
8.12883
8.08916
8.03791
7.97264
7.89134
7.7928
7.67712
7.54612
7.40373
7.25613
7.11197
6.98239
6.88123
6.82387
7.0629
7.10019
7.16369
7.24331
7.33448
7.43407
7.53885
7.64497
7.7484
7.84531
7.93254
8.00795
8.0706
8.12073
8.15944
8.18844
8.20972
8.22527
8.23686
8.24589
8.25331
8.25971
8.2654
8.27051
8.27503
8.27886
8.28196
8.28437
8.28622
8.28767
8.28883
8.28979
8.29059
8.29126
8.29186
8.2924
8.2929
8.29336
8.29378
8.29415
8.29448
8.29476
8.295
8.29519
8.29534
8.29546
8.29554
8.29559
8.29561
8.29561
8.2956
8.29557
8.29552
8.29545
8.29536
8.29524
8.29509
8.29489
8.29464
8.29434
8.29397
8.29354
8.29304
8.29247
8.29184
8.29113
8.29035
8.28949
8.28854
8.28748
8.28626
8.28485
8.28315
8.28107
8.27848
8.27523
8.27117
8.26615
8.26005
8.25271
8.24398
8.23362
8.22123
8.2062
8.18754
8.16387
8.13333
8.09367
8.04242
7.97716
7.89586
7.79731
7.6816
7.55058
7.40815
7.26052
7.11632
6.98671
6.88553
6.82815
7.06732
7.10463
7.16813
7.24775
7.33892
7.4385
7.54325
7.64935
7.75274
7.84961
7.9368
8.01215
8.07476
8.12484
8.16351
8.19247
8.21371
8.22923
8.2408
8.2498
8.2572
8.26359
8.26926
8.27436
8.27886
8.28269
8.28578
8.28819
8.29003
8.29148
8.29264
8.29359
8.29438
8.29506
8.29565
8.2962
8.29669
8.29715
8.29757
8.29794
8.29827
8.29855
8.29878
8.29897
8.29913
8.29924
8.29932
8.29937
8.2994
8.2994
8.29938
8.29935
8.2993
8.29924
8.29915
8.29903
8.29887
8.29868
8.29843
8.29812
8.29775
8.29732
8.29682
8.29626
8.29562
8.29492
8.29414
8.29328
8.29232
8.29126
8.29004
8.28863
8.28693
8.28485
8.28225
8.279
8.27494
8.26993
8.26382
8.25649
8.24776
8.2374
8.22502
8.20999
8.19134
8.16767
8.13714
8.09749
8.04626
7.98101
7.89972
7.80117
7.68547
7.55443
7.41199
7.26433
7.12009
6.99046
6.88925
6.83186
7.07096
7.10827
7.17177
7.25138
7.34254
7.4421
7.54682
7.6529
7.75625
7.85309
7.94023
8.01555
8.07812
8.12816
8.1668
8.19573
8.21694
8.23243
8.24398
8.25297
8.26035
8.26672
8.27238
8.27747
8.28196
8.28578
8.28887
8.29127
8.29311
8.29455
8.29571
8.29666
8.29745
8.29813
8.29872
8.29926
8.29976
8.30022
8.30063
8.301
8.30132
8.3016
8.30184
8.30203
8.30219
8.3023
8.30238
8.30243
8.30245
8.30246
8.30244
8.30241
8.30236
8.30229
8.3022
8.30208
8.30193
8.30173
8.30148
8.30118
8.30081
8.30038
8.29988
8.29931
8.29868
8.29797
8.29719
8.29633
8.29538
8.29431
8.2931
8.29168
8.28998
8.2879
8.2853
8.28205
8.27799
8.27298
8.26687
8.25954
8.25081
8.24046
8.22808
8.21305
8.19441
8.17074
8.14022
8.10058
8.04936
7.98412
7.90284
7.80431
7.68862
7.55759
7.41514
7.26748
7.12323
6.99358
6.89235
6.83496
7.07387
7.11117
7.17466
7.25425
7.34539
7.44492
7.54962
7.65566
7.75899
7.85579
7.9429
8.01819
8.08073
8.13074
8.16935
8.19826
8.21945
8.23493
8.24645
8.25543
8.2628
8.26915
8.27481
8.27989
8.28437
8.28819
8.29127
8.29367
8.29551
8.29694
8.2981
8.29905
8.29984
8.30051
8.3011
8.30164
8.30213
8.30259
8.30301
8.30337
8.3037
8.30398
8.30421
8.3044
8.30456
8.30467
8.30475
8.3048
8.30482
8.30483
8.30481
8.30478
8.30473
8.30466
8.30457
8.30445
8.3043
8.3041
8.30385
8.30355
8.30318
8.30275
8.30225
8.30168
8.30105
8.30034
8.29956
8.2987
8.29775
8.29668
8.29547
8.29405
8.29235
8.29027
8.28767
8.28441
8.28035
8.27534
8.26923
8.2619
8.25318
8.24282
8.23045
8.21542
8.19678
8.17312
8.1426
8.10296
8.05175
7.98652
7.90526
7.80674
7.69106
7.56005
7.41762
7.26996
7.12572
6.99607
6.89484
6.83745
7.07613
7.11342
7.1769
7.25647
7.34758
7.44709
7.55177
7.65778
7.76108
7.85786
7.94495
8.02021
8.08273
8.13273
8.17132
8.2002
8.22138
8.23684
8.24836
8.25731
8.26467
8.27102
8.27667
8.28174
8.28622
8.29003
8.29311
8.29551
8.29734
8.29877
8.29993
8.30087
8.30166
8.30233
8.30292
8.30346
8.30396
8.30441
8.30482
8.30519
8.30551
8.30579
8.30603
8.30622
8.30637
8.30649
8.30657
8.30661
8.30664
8.30664
8.30662
8.30659
8.30654
8.30648
8.30639
8.30627
8.30611
8.30592
8.30567
8.30536
8.30499
8.30456
8.30406
8.3035
8.30286
8.30216
8.30138
8.30052
8.29956
8.29849
8.29728
8.29586
8.29416
8.29208
8.28948
8.28622
8.28216
8.27714
8.27104
8.26371
8.25498
8.24463
8.23226
8.21723
8.19859
8.17494
8.14442
8.10479
8.05358
7.98836
7.9071
7.8086
7.69293
7.56193
7.41952
7.27188
7.12765
6.99802
6.8968
6.83941
7.0779
7.11518
7.17864
7.25819
7.34929
7.44879
7.55344
7.65944
7.76272
7.85948
7.94655
8.0218
8.0843
8.13428
8.17285
8.20173
8.22289
8.23834
8.24984
8.25879
8.26614
8.27248
8.27812
8.28319
8.28767
8.29148
8.29455
8.29694
8.29877
8.3002
8.30135
8.3023
8.30309
8.30376
8.30435
8.30488
8.30538
8.30583
8.30624
8.30661
8.30693
8.30721
8.30744
8.30764
8.30779
8.3079
8.30798
8.30803
8.30805
8.30806
8.30804
8.30801
8.30796
8.30789
8.3078
8.30768
8.30753
8.30733
8.30708
8.30678
8.30641
8.30598
8.30548
8.30491
8.30428
8.30357
8.30279
8.30193
8.30098
8.29991
8.29869
8.29727
8.29557
8.29349
8.29089
8.28763
8.28357
8.27855
8.27244
8.26511
8.25639
8.24603
8.23366
8.21864
8.2
8.17635
8.14583
8.10621
8.055
7.98978
7.90853
7.81003
7.69438
7.56339
7.42098
7.27336
7.12915
6.99953
6.89832
6.84094
7.0793
7.11658
7.18003
7.25957
7.35066
7.45014
7.55478
7.66077
7.76403
7.86078
7.94784
8.02307
8.08556
8.13553
8.17409
8.20295
8.2241
8.23954
8.25104
8.25998
8.26733
8.27366
8.2793
8.28436
8.28883
8.29264
8.29571
8.2981
8.29993
8.30135
8.3025
8.30345
8.30423
8.3049
8.30549
8.30602
8.30652
8.30697
8.30738
8.30775
8.30807
8.30835
8.30858
8.30877
8.30892
8.30904
8.30912
8.30917
8.30919
8.30919
8.30918
8.30914
8.3091
8.30903
8.30894
8.30882
8.30867
8.30847
8.30822
8.30791
8.30755
8.30711
8.30662
8.30605
8.30541
8.30471
8.30393
8.30307
8.30211
8.30105
8.29983
8.29841
8.29671
8.29462
8.29202
8.28877
8.2847
8.27968
8.27357
8.26624
8.25751
8.24716
8.23479
8.21977
8.20113
8.17748
8.14697
8.10734
8.05614
7.99093
7.90968
7.81118
7.69553
7.56455
7.42215
7.27453
7.13033
7.00072
6.89952
6.84215
7.08043
7.11771
7.18115
7.26069
7.35177
7.45124
7.55587
7.66185
7.76511
7.86184
7.94889
8.02411
8.08659
8.13655
8.1751
8.20395
8.2251
8.24053
8.25202
8.26095
8.2683
8.27463
8.28026
8.28532
8.28979
8.29359
8.29666
8.29905
8.30087
8.3023
8.30345
8.30439
8.30517
8.30584
8.30643
8.30696
8.30745
8.30791
8.30832
8.30868
8.309
8.30928
8.30951
8.30971
8.30986
8.30997
8.31005
8.3101
8.31012
8.31013
8.31011
8.31008
8.31003
8.30996
8.30987
8.30975
8.3096
8.3094
8.30915
8.30884
8.30848
8.30805
8.30755
8.30698
8.30635
8.30564
8.30486
8.304
8.30305
8.30198
8.30076
8.29934
8.29764
8.29555
8.29295
8.2897
8.28563
8.28061
8.2745
8.26716
8.25844
8.24808
8.23571
8.22069
8.20205
8.1784
8.14789
8.10827
8.05707
7.99186
7.91061
7.81212
7.69647
7.56549
7.4231
7.27549
7.1313
7.00169
6.90049
6.84313
7.08137
7.11864
7.18208
7.26161
7.35268
7.45215
7.55677
7.66274
7.76599
7.86272
7.94976
8.02497
8.08744
8.13739
8.17593
8.20478
8.22592
8.24135
8.25283
8.26177
8.26911
8.27543
8.28106
8.28612
8.29059
8.29438
8.29745
8.29984
8.30166
8.30309
8.30423
8.30517
8.30596
8.30662
8.30721
8.30774
8.30823
8.30868
8.30909
8.30946
8.30978
8.31006
8.31029
8.31048
8.31063
8.31075
8.31083
8.31088
8.3109
8.3109
8.31089
8.31085
8.3108
8.31074
8.31065
8.31053
8.31037
8.31017
8.30993
8.30962
8.30925
8.30882
8.30832
8.30776
8.30712
8.30642
8.30564
8.30478
8.30382
8.30275
8.30154
8.30012
8.29842
8.29633
8.29373
8.29047
8.2864
8.28138
8.27527
8.26793
8.25921
8.24885
8.23647
8.22145
8.20282
8.17917
8.14865
8.10903
8.05784
7.99263
7.91139
7.8129
7.69725
7.56628
7.42389
7.27628
7.13209
7.00249
6.90129
6.84393
7.08215
7.11942
7.18286
7.26238
7.35345
7.45291
7.55753
7.66349
7.76673
7.86345
7.95049
8.02569
8.08816
8.1381
8.17664
8.20549
8.22662
8.24205
8.25353
8.26246
8.26979
8.27612
8.28174
8.2868
8.29126
8.29506
8.29813
8.30051
8.30233
8.30376
8.3049
8.30584
8.30662
8.30729
8.30787
8.3084
8.30889
8.30935
8.30976
8.31012
8.31044
8.31072
8.31095
8.31114
8.31129
8.31141
8.31149
8.31154
8.31156
8.31156
8.31155
8.31151
8.31146
8.3114
8.31131
8.31119
8.31103
8.31083
8.31058
8.31028
8.30991
8.30948
8.30898
8.30842
8.30778
8.30708
8.3063
8.30544
8.30448
8.30341
8.3022
8.30078
8.29907
8.29699
8.29439
8.29113
8.28706
8.28204
8.27593
8.26859
8.25986
8.2495
8.23713
8.2221
8.20346
8.17981
8.1493
8.10968
8.05848
7.99328
7.91203
7.81355
7.69791
7.56693
7.42455
7.27694
7.13276
7.00315
6.90196
6.8446
7.08282
7.12009
7.18352
7.26304
7.3541
7.45356
7.55818
7.66414
7.76737
7.86409
7.95112
8.02633
8.08879
8.13873
8.17727
8.20611
8.22724
8.24266
8.25414
8.26307
8.2704
8.27672
8.28234
8.2874
8.29186
8.29565
8.29872
8.3011
8.30292
8.30435
8.30549
8.30643
8.30721
8.30787
8.30846
8.30899
8.30948
8.30993
8.31034
8.3107
8.31102
8.3113
8.31153
8.31172
8.31188
8.31199
8.31207
8.31212
8.31214
8.31214
8.31213
8.31209
8.31204
8.31198
8.31189
8.31177
8.31161
8.31141
8.31116
8.31086
8.31049
8.31006
8.30956
8.309
8.30836
8.30766
8.30688
8.30602
8.30506
8.30399
8.30278
8.30136
8.29966
8.29757
8.29497
8.29171
8.28764
8.28262
8.2765
8.26917
8.26044
8.25008
8.2377
8.22268
8.20404
8.18038
8.14987
8.11025
8.05905
7.99384
7.9126
7.81412
7.69847
7.5675
7.42512
7.27752
7.13333
7.00373
6.90254
6.84519
7.08341
7.12068
7.18411
7.26363
7.35469
7.45415
7.55876
7.66471
7.76795
7.86467
7.95169
8.0269
8.08936
8.1393
8.17783
8.20667
8.2278
8.24322
8.25469
8.26362
8.27095
8.27727
8.28289
8.28794
8.2924
8.2962
8.29926
8.30164
8.30346
8.30488
8.30602
8.30696
8.30774
8.3084
8.30899
8.30952
8.31001
8.31046
8.31087
8.31123
8.31155
8.31183
8.31206
8.31225
8.3124
8.31252
8.3126
8.31265
8.31267
8.31267
8.31265
8.31262
8.31257
8.3125
8.31241
8.3123
8.31214
8.31194
8.31169
8.31139
8.31102
8.31059
8.31009
8.30952
8.30889
8.30818
8.3074
8.30654
8.30559
8.30452
8.30331
8.30189
8.30018
8.2981
8.29549
8.29223
8.28816
8.28314
8.27703
8.26969
8.26096
8.2506
8.23822
8.2232
8.20456
8.1809
8.15038
8.11076
8.05956
7.99435
7.91311
7.81463
7.69898
7.56801
7.42563
7.27803
7.13384
7.00425
6.90306
6.8457
7.08394
7.12121
7.18464
7.26416
7.35522
7.45468
7.55929
7.66524
7.76848
7.86519
7.95222
8.02742
8.08988
8.13982
8.17835
8.20718
8.22831
8.24373
8.2552
8.26413
8.27145
8.27777
8.28339
8.28844
8.2929
8.29669
8.29976
8.30213
8.30396
8.30538
8.30652
8.30745
8.30823
8.30889
8.30948
8.31001
8.3105
8.31095
8.31136
8.31172
8.31204
8.31232
8.31255
8.31274
8.31289
8.31301
8.31308
8.31313
8.31316
8.31316
8.31314
8.31311
8.31306
8.31299
8.3129
8.31278
8.31263
8.31243
8.31218
8.31187
8.31151
8.31108
8.31058
8.31001
8.30938
8.30867
8.30789
8.30703
8.30608
8.30501
8.30379
8.30237
8.30067
8.29858
8.29598
8.29272
8.28865
8.28363
8.27752
8.27018
8.26145
8.25109
8.23871
8.22368
8.20504
8.18138
8.15086
8.11124
8.06004
7.99483
7.91358
7.8151
7.69945
7.56848
7.4261
7.27849
7.13431
7.00471
6.90352
6.84617
7.08442
7.12169
7.18512
7.26464
7.35571
7.45516
7.55977
7.66573
7.76896
7.86568
7.9527
8.0279