/*--------------------------------*- C++ -*----------------------------------*\
  =========                 |
  \\      /  F ield         | OpenFOAM: The Open Source CFD Toolbox
   \\    /   O peration     | Website:  https://openfoam.org
    \\  /    A nd           | Version:  dev
     \\/     M anipulation  |
\*---------------------------------------------------------------------------*/
FoamFile
{
    version     2.0;
    format      ascii;
    class       volScalarField;
    location    "10";
    object      rho1;
}
// * * * * * * * * * * * * * * * * * * * * * * * * * * * * * * * * * * * * * //

dimensions      [0 -3 1 0 0 1 0];

internalField   uniform 0.001259;

boundaryField
{
    side1
    {
        type            calculated;
        value           uniform 0;
    }
    side2
    {
        type            calculated;
        value           uniform 0;
    }
    side3
    {
        type            calculated;
        value           uniform 0;
    }
    side4
    {
        type            calculated;
        value           uniform 0;
    }
    front
    {
        type            calculated;
        value           uniform 0;
    }
    back
    {
        type            calculated;
        value           uniform 0;
    }
}


// ************************************************************************* //
