/*--------------------------------*- C++ -*----------------------------------*\
  =========                 |
  \\      /  F ield         | OpenFOAM: The Open Source CFD Toolbox
   \\    /   O peration     | Website:  https://openfoam.org
    \\  /    A nd           | Version:  dev
     \\/     M anipulation  |
\*---------------------------------------------------------------------------*/
FoamFile
{
    version     2.0;
    format      ascii;
    class       volScalarField;
    location    "0.01";
    object      phi;
}
// * * * * * * * * * * * * * * * * * * * * * * * * * * * * * * * * * * * * * //

dimensions      [1 2 -3 0 0 -1 0];

internalField   nonuniform List<scalar> 
9000
(
49.9949
49.9949
49.9949
49.995
49.9951
49.9952
49.9953
49.9954
49.9954
49.9955
49.9951
49.9951
49.9951
49.9952
49.9954
49.9955
49.9956
49.9957
49.9958
49.9959
49.9955
49.9955
49.9956
49.9957
49.9959
49.9961
49.9963
49.9965
49.9966
49.9968
49.9961
49.9961
49.9963
49.9965
49.9967
49.997
49.9974
49.9977
49.998
49.9982
49.9969
49.997
49.9972
49.9976
49.9979
49.9984
49.999
49.9995
50.0001
50.0005
49.9981
49.9982
49.9985
49.999
49.9996
50.0003
50.0012
50.0022
50.0031
50.004
49.9994
49.9997
50.0001
50.0008
50.0018
50.0029
50.0043
50.0059
50.0076
50.0092
50.0011
50.0014
50.0021
50.0031
50.0045
50.0063
50.0086
50.0112
50.0141
50.0171
50.0031
50.0036
50.0045
50.006
50.008
50.0108
50.0143
50.0186
50.0236
50.029
50.0054
50.006
50.0073
50.0093
50.0123
50.0163
50.0217
50.0285
50.037
50.0471
129.986
129.986
129.986
129.986
129.986
129.986
129.986
129.986
129.986
129.986
129.986
129.986
129.986
129.986
129.987
129.987
129.987
129.987
129.987
129.987
129.987
129.987
129.987
129.987
129.988
129.988
129.988
129.988
129.988
129.988
129.988
129.988
129.988
129.989
129.989
129.989
129.99
129.99
129.99
129.99
129.99
129.99
129.99
129.991
129.991
129.992
129.992
129.993
129.993
129.994
129.992
129.992
129.993
129.993
129.994
129.995
129.996
129.996
129.997
129.998
129.995
129.995
129.996
129.996
129.997
129.998
130
130.001
130.002
130.003
129.998
129.998
129.999
130
130.001
130.003
130.005
130.007
130.009
130.011
130.001
130.002
130.003
130.004
130.006
130.009
130.011
130.014
130.017
130.02
130.005
130.006
130.007
130.009
130.012
130.015
130.019
130.023
130.027
130.031
189.975
189.975
189.975
189.975
189.975
189.975
189.975
189.975
189.975
189.975
189.975
189.975
189.975
189.975
189.976
189.976
189.976
189.976
189.976
189.975
189.976
189.976
189.976
189.976
189.976
189.977
189.977
189.977
189.977
189.977
189.977
189.977
189.977
189.978
189.978
189.978
189.978
189.978
189.978
189.978
189.979
189.979
189.979
189.979
189.98
189.98
189.98
189.98
189.98
189.98
189.981
189.981
189.981
189.982
189.982
189.982
189.983
189.983
189.983
189.983
189.983
189.983
189.984
189.984
189.985
189.985
189.986
189.986
189.987
189.987
189.986
189.986
189.987
189.987
189.988
189.989
189.99
189.99
189.991
189.991
189.989
189.99
189.99
189.991
189.992
189.993
189.994
189.995
189.996
189.997
189.993
189.993
189.994
189.995
189.996
189.997
189.999
190
190.002
190.003
229.963
229.963
229.963
229.963
229.963
229.963
229.963
229.963
229.963
229.963
229.963
229.963
229.963
229.963
229.963
229.963
229.963
229.963
229.963
229.963
229.964
229.964
229.964
229.964
229.964
229.964
229.964
229.964
229.964
229.964
229.965
229.965
229.965
229.965
229.965
229.965
229.965
229.965
229.965
229.965
229.966
229.966
229.966
229.966
229.966
229.966
229.966
229.966
229.966
229.966
229.967
229.967
229.967
229.967
229.967
229.967
229.967
229.968
229.968
229.967
229.968
229.969
229.969
229.969
229.969
229.969
229.969
229.969
229.969
229.969
229.97
229.97
229.97
229.971
229.971
229.971
229.971
229.972
229.972
229.972
229.972
229.972
229.973
229.973
229.973
229.973
229.974
229.974
229.974
229.974
229.974
229.975
229.975
229.975
229.976
229.976
229.977
229.977
229.977
229.977
249.952
249.952
249.952
249.952
249.952
249.952
249.952
249.952
249.952
249.952
249.952
249.952
249.952
249.952
249.952
249.952
249.952
249.952
249.952
249.952
249.952
249.952
249.952
249.952
249.952
249.952
249.952
249.952
249.952
249.952
249.952
249.952
249.952
249.952
249.952
249.952
249.952
249.952
249.952
249.952
249.953
249.953
249.953
249.953
249.953
249.953
249.953
249.953
249.953
249.953
249.953
249.953
249.953
249.953
249.953
249.953
249.953
249.953
249.953
249.953
249.954
249.954
249.954
249.954
249.954
249.954
249.954
249.954
249.954
249.954
249.954
249.954
249.954
249.954
249.954
249.955
249.955
249.955
249.955
249.955
249.955
249.955
249.955
249.955
249.955
249.955
249.955
249.955
249.955
249.955
249.956
249.956
249.956
249.956
249.956
249.956
249.956
249.956
249.956
249.956
249.944
249.944
249.944
249.944
249.944
249.944
249.944
249.944
249.944
249.944
249.944
249.944
249.944
249.944
249.944
249.944
249.944
249.944
249.944
249.944
249.944
249.944
249.944
249.944
249.944
249.944
249.944
249.944
249.944
249.944
249.943
249.943
249.943
249.943
249.943
249.943
249.943
249.943
249.943
249.943
249.943
249.943
249.943
249.943
249.943
249.943
249.943
249.943
249.943
249.943
249.942
249.942
249.942
249.942
249.942
249.942
249.942
249.942
249.942
249.942
249.942
249.942
249.942
249.942
249.942
249.942
249.942
249.942
249.942
249.942
249.941
249.941
249.941
249.941
249.941
249.941
249.941
249.941
249.941
249.941
249.941
249.941
249.941
249.941
249.941
249.94
249.94
249.94
249.94
249.94
249.94
249.94
249.94
249.94
249.94
249.94
249.94
249.94
249.94
249.94
229.941
229.941
229.941
229.941
229.941
229.941
229.941
229.941
229.941
229.941
229.941
229.941
229.941
229.941
229.941
229.941
229.941
229.941
229.941
229.941
229.94
229.94
229.94
229.94
229.94
229.94
229.94
229.94
229.94
229.94
229.939
229.939
229.939
229.939
229.939
229.939
229.939
229.939
229.939
229.94
229.938
229.938
229.938
229.938
229.938
229.938
229.938
229.938
229.938
229.938
229.937
229.937
229.937
229.937
229.937
229.937
229.937
229.937
229.937
229.937
229.936
229.936
229.935
229.935
229.935
229.935
229.935
229.935
229.935
229.935
229.934
229.934
229.934
229.933
229.933
229.933
229.933
229.932
229.932
229.932
229.932
229.932
229.932
229.931
229.931
229.931
229.93
229.93
229.93
229.93
229.93
229.929
229.929
229.929
229.928
229.928
229.928
229.927
229.927
229.927
189.946
189.946
189.946
189.946
189.946
189.946
189.946
189.946
189.946
189.946
189.945
189.945
189.945
189.945
189.945
189.945
189.945
189.945
189.945
189.945
189.945
189.945
189.945
189.944
189.944
189.944
189.944
189.944
189.944
189.944
189.943
189.943
189.943
189.943
189.943
189.943
189.943
189.943
189.943
189.943
189.942
189.942
189.942
189.941
189.941
189.941
189.941
189.94
189.94
189.94
189.94
189.94
189.94
189.939
189.939
189.938
189.938
189.938
189.937
189.937
189.937
189.937
189.937
189.937
189.936
189.936
189.935
189.934
189.934
189.934
189.935
189.934
189.934
189.933
189.933
189.932
189.931
189.93
189.93
189.929
189.931
189.931
189.931
189.93
189.929
189.928
189.927
189.926
189.925
189.924
189.928
189.928
189.927
189.926
189.925
189.923
189.922
189.92
189.919
189.918
129.96
129.96
129.96
129.96
129.96
129.96
129.959
129.959
129.959
129.959
129.96
129.96
129.959
129.959
129.959
129.959
129.959
129.959
129.959
129.959
129.959
129.959
129.959
129.958
129.958
129.958
129.958
129.958
129.957
129.957
129.958
129.957
129.957
129.957
129.957
129.956
129.956
129.956
129.955
129.955
129.956
129.956
129.955
129.955
129.955
129.954
129.954
129.953
129.953
129.952
129.954
129.953
129.953
129.953
129.952
129.951
129.95
129.949
129.949
129.948
129.951
129.951
129.95
129.949
129.949
129.947
129.946
129.945
129.944
129.942
129.948
129.948
129.947
129.946
129.944
129.943
129.941
129.939
129.937
129.935
129.944
129.944
129.943
129.941
129.94
129.937
129.935
129.932
129.929
129.926
129.94
129.94
129.938
129.936
129.934
129.931
129.927
129.923
129.919
129.914
49.9843
49.9843
49.9842
49.9841
49.984
49.9839
49.9838
49.9838
49.9837
49.9837
49.9841
49.9841
49.984
49.9839
49.9838
49.9837
49.9835
49.9834
49.9833
49.9833
49.9837
49.9836
49.9835
49.9834
49.9833
49.9831
49.9829
49.9827
49.9825
49.9824
49.9831
49.983
49.9829
49.9827
49.9824
49.9821
49.9818
49.9815
49.9811
49.9809
49.9822
49.9821
49.9819
49.9816
49.9812
49.9807
49.9802
49.9796
49.9791
49.9786
49.9811
49.9809
49.9806
49.9802
49.9796
49.9788
49.9779
49.977
49.976
49.9751
49.9797
49.9795
49.979
49.9783
49.9774
49.9762
49.9748
49.9732
49.9716
49.9699
49.978
49.9777
49.977
49.976
49.9746
49.9728
49.9706
49.9679
49.965
49.9621
49.976
49.9756
49.9746
49.9732
49.9711
49.9684
49.9649
49.9606
49.9556
49.9501
49.9737
49.9731
49.9719
49.9698
49.9668
49.9628
49.9575
49.9506
49.9421
49.9321
50.0282
50.0307
50.0359
50.0445
50.0575
50.0766
50.1042
50.1441
50.202
50.2865
50.0323
50.0348
50.0402
50.049
50.0624
50.082
50.1103
50.1511
50.21
50.2955
50.0332
50.0359
50.0415
50.0506
50.0642
50.084
50.1126
50.1536
50.2129
50.299
50.0322
50.0346
50.0399
50.0487
50.0621
50.0816
50.1099
50.1505
50.2093
50.2946
50.0319
50.0347
50.0403
50.0494
50.0631
50.0829
50.1116
50.1527
50.2121
50.2982
50.0262
50.0285
50.0338
50.0426
50.0559
50.0755
50.1037
50.1443
50.2031
50.2883
50.0076
50.0104
50.016
50.0251
50.0387
50.0586
50.0872
50.1283
50.1877
50.2738
49.9293
49.9316
49.9368
49.9455
49.9587
49.978
50.006
50.0464
50.1049
50.1899
49.6362
49.6383
49.6426
49.6498
49.6609
49.6776
49.7025
49.7393
49.7938
49.8746
48.5957
48.5919
48.5846
48.5742
48.5614
48.5474
48.5341
48.5242
48.5219
48.5332
130.045
130.047
130.051
130.058
130.068
130.08
130.095
130.113
130.133
130.154
130.056
130.059
130.064
130.072
130.082
130.095
130.111
130.13
130.151
130.174
130.053
130.055
130.06
130.067
130.077
130.089
130.105
130.123
130.143
130.165
130.057
130.06
130.065
130.073
130.084
130.097
130.113
130.133
130.154
130.177
130.049
130.05
130.055
130.062
130.071
130.084
130.099
130.117
130.138
130.159
130.04
130.043
130.049
130.057
130.067
130.081
130.097
130.116
130.138
130.161
129.978
129.98
129.984
129.991
130.001
130.014
130.029
130.047
130.067
130.088
129.758
129.761
129.766
129.773
129.783
129.796
129.811
129.829
129.85
129.871
128.908
128.908
128.909
128.912
128.915
128.92
128.925
128.933
128.941
128.948
125.986
125.975
125.954
125.922
125.881
125.829
125.767
125.692
125.602
125.487
190.028
190.03
190.032
190.035
190.039
190.044
190.05
190.056
190.062
190.067
190.034
190.035
190.037
190.04
190.044
190.049
190.055
190.06
190.066
190.07
190.042
190.044
190.047
190.051
190.055
190.061
190.068
190.074
190.081
190.087
190.032
190.032
190.034
190.037
190.041
190.045
190.05
190.056
190.061
190.065
190.037
190.039
190.042
190.046
190.051
190.057
190.064
190.071
190.078
190.084
190.004
190.004
190.006
190.009
190.012
190.017
190.022
190.027
190.032
190.036
189.927
189.929
189.932
189.936
189.941
189.947
189.954
189.96
189.967
189.974
189.568
189.568
189.57
189.572
189.575
189.579
189.583
189.587
189.59
189.593
188.265
188.265
188.262
188.259
188.254
188.247
188.239
188.229
188.217
188.203
183.876
183.862
183.834
183.792
183.737
183.668
183.584
183.483
183.361
183.206
229.994
229.995
229.995
229.996
229.997
229.999
230
230.002
230.003
230.004
230.007
230.008
230.009
230.011
230.013
230.015
230.017
230.019
230.021
230.023
229.997
229.997
229.997
229.998
229.999
230
230.001
230.002
230.003
230.003
230.01
230.011
230.012
230.014
230.016
230.018
230.021
230.023
230.026
230.028
229.987
229.986
229.986
229.987
229.988
229.989
229.99
229.99
229.991
229.99
229.977
229.978
229.98
229.982
229.984
229.986
229.989
229.992
229.994
229.997
229.849
229.848
229.848
229.849
229.85
229.851
229.852
229.852
229.853
229.852
229.424
229.425
229.425
229.426
229.427
229.428
229.429
229.429
229.429
229.429
227.774
227.771
227.766
227.758
227.747
227.735
227.719
227.7
227.679
227.655
222.415
222.399
222.367
222.32
222.257
222.177
222.08
221.963
221.822
221.648
249.965
249.965
249.965
249.966
249.966
249.967
249.967
249.968
249.968
249.968
249.96
249.96
249.959
249.959
249.959
249.959
249.959
249.959
249.959
249.958
249.973
249.974
249.975
249.975
249.976
249.977
249.978
249.979
249.98
249.981
249.954
249.953
249.953
249.952
249.952
249.952
249.952
249.951
249.951
249.95
249.967
249.968
249.969
249.97
249.971
249.972
249.973
249.974
249.975
249.976
249.915
249.914
249.913
249.913
249.913
249.912
249.912
249.911
249.911
249.91
249.813
249.814
249.815
249.816
249.817
249.818
249.819
249.82
249.821
249.822
249.308
249.307
249.306
249.305
249.303
249.302
249.3
249.298
249.295
249.292
247.511
247.508
247.502
247.493
247.481
247.466
247.448
247.427
247.404
247.378
241.651
241.634
241.6
241.548
241.479
241.392
241.285
241.157
241.002
240.815
249.931
249.93
249.93
249.93
249.929
249.929
249.929
249.928
249.928
249.927
249.936
249.936
249.937
249.937
249.936
249.936
249.936
249.936
249.937
249.937
249.921
249.92
249.919
249.919
249.918
249.917
249.917
249.916
249.915
249.914
249.938
249.939
249.939
249.939
249.939
249.939
249.94
249.94
249.941
249.941
249.909
249.908
249.907
249.906
249.905
249.904
249.904
249.903
249.901
249.9
249.902
249.903
249.904
249.904
249.904
249.904
249.905
249.905
249.906
249.907
249.756
249.755
249.754
249.753
249.752
249.752
249.751
249.75
249.749
249.748
249.289
249.289
249.289
249.288
249.287
249.285
249.284
249.282
249.28
249.279
247.465
247.461
247.455
247.445
247.431
247.415
247.396
247.374
247.349
247.322
241.623
241.606
241.571
241.519
241.45
241.362
241.255
241.126
240.972
240.784
229.91
229.91
229.909
229.908
229.907
229.905
229.904
229.902
229.901
229.9
229.895
229.894
229.893
229.892
229.89
229.888
229.886
229.885
229.883
229.881
229.908
229.908
229.908
229.907
229.906
229.904
229.903
229.901
229.901
229.9
229.888
229.887
229.886
229.884
229.882
229.88
229.878
229.876
229.874
229.873
229.903
229.903
229.903
229.902
229.901
229.899
229.898
229.897
229.896
229.896
229.852
229.851
229.85
229.848
229.846
229.844
229.842
229.84
229.838
229.837
229.764
229.765
229.764
229.763
229.762
229.761
229.759
229.758
229.757
229.757
229.305
229.304
229.302
229.3
229.297
229.294
229.29
229.286
229.282
229.279
227.681
227.678
227.671
227.661
227.648
227.632
227.614
227.592
227.569
227.544
222.319
222.303
222.269
222.219
222.153
222.07
221.97
221.85
221.705
221.529
189.892
189.891
189.888
189.885
189.881
189.876
189.87
189.864
189.859
189.853
189.888
189.887
189.885
189.882
189.878
189.872
189.867
189.861
189.855
189.85
189.875
189.873
189.871
189.867
189.863
189.857
189.851
189.845
189.839
189.833
189.889
189.889
189.887
189.883
189.879
189.874
189.868
189.862
189.857
189.852
189.865
189.864
189.861
189.858
189.853
189.848
189.842
189.835
189.829
189.824
189.864
189.863
189.861
189.858
189.854
189.849
189.843
189.837
189.832
189.827
189.756
189.754
189.752
189.748
189.744
189.738
189.732
189.726
189.72
189.714
189.424
189.423
189.42
189.416
189.411
189.405
189.398
189.39
189.383
189.376
188.104
188.1
188.093
188.082
188.068
188.051
188.03
188.008
187.983
187.957
183.739
183.722
183.69
183.642
183.579
183.499
183.405
183.292
183.159
182.994
129.902
129.9
129.895
129.888
129.879
129.866
129.851
129.833
129.813
129.792
129.887
129.885
129.88
129.873
129.862
129.849
129.834
129.815
129.794
129.772
129.895
129.893
129.888
129.88
129.87
129.857
129.841
129.823
129.802
129.78
129.883
129.88
129.875
129.868
129.858
129.845
129.829
129.81
129.789
129.767
129.893
129.891
129.886
129.878
129.868
129.855
129.839
129.821
129.8
129.778
129.864
129.862
129.857
129.849
129.839
129.826
129.81
129.792
129.771
129.749
129.822
129.82
129.815
129.807
129.797
129.784
129.768
129.75
129.729
129.707
129.585
129.582
129.577
129.569
129.559
129.545
129.528
129.509
129.487
129.464
128.748
128.744
128.736
128.723
128.706
128.685
128.659
128.629
128.596
128.56
125.835
125.82
125.789
125.743
125.682
125.606
125.513
125.402
125.271
125.114
49.9505
49.9481
49.9429
49.9343
49.9214
49.9023
49.8748
49.8349
49.777
49.6926
49.948
49.9454
49.9399
49.9309
49.9174
49.8977
49.8693
49.8284
49.7694
49.6837
49.944
49.9415
49.9361
49.9272
49.9138
49.8941
49.8657
49.8248
49.7657
49.68
49.9484
49.9457
49.9402
49.9311
49.9176
49.8978
49.8694
49.8285
49.7695
49.6839
49.9417
49.9392
49.9339
49.9251
49.9116
49.892
49.8636
49.8227
49.7636
49.6778
49.9429
49.9402
49.9346
49.9256
49.912
49.8923
49.8639
49.823
49.764
49.6784
49.9175
49.915
49.9097
49.9009
49.8874
49.8678
49.8394
49.7985
49.7394
49.6536
49.8451
49.8424
49.8367
49.8275
49.8138
49.7938
49.7651
49.7238
49.6644
49.5783
49.5486
49.5454
49.5388
49.528
49.5121
49.4893
49.4572
49.4121
49.3483
49.2574
48.517
48.5083
48.4906
48.463
48.4242
48.3722
48.3037
48.2141
48.0961
47.9387
46.5345
46.4776
46.3618
46.1835
45.9386
45.6245
45.246
44.8299
44.4606
44.3735
46.295
46.2278
46.0899
45.8739
45.5686
45.1569
44.6148
43.9061
42.9705
41.6839
46.0521
45.9721
45.806
45.5417
45.1579
44.6202
43.8718
42.8171
41.2859
38.9581
45.8168
45.7236
45.5293
45.2172
44.7587
44.1068
43.1863
41.8759
39.9788
37.1766
45.6009
45.4966
45.2788
44.9284
44.413
43.6806
42.651
41.2016
39.1478
36.2175
45.4143
45.3021
45.0681
44.6928
44.1432
43.3679
42.2898
40.7955
38.7212
35.8363
45.2635
45.1466
44.9039
44.5164
43.9531
43.1661
42.0851
40.609
38.5937
35.8367
45.1511
45.0323
44.7865
44.3963
43.8334
43.0549
41.999
40.5771
38.6632
36.0768
45.0773
44.9582
44.7124
44.3242
43.7681
43.0062
41.9846
40.6282
38.8312
36.4403
45.0408
44.9219
44.6769
44.291
43.7405
42.9909
41.9941
40.6862
38.9839
36.7843
120.775
120.693
120.536
120.316
120.065
119.84
119.756
120.038
121.153
124.102
120.162
120.06
119.858
119.564
119.191
118.768
118.341
117.987
117.813
117.895
119.535
119.403
119.138
118.735
118.185
117.473
116.569
115.404
113.815
111.407
118.92
118.758
118.426
117.909
117.181
116.196
114.877
113.091
110.609
107.041
118.351
118.162
117.773
117.162
116.293
115.107
113.513
111.371
108.472
104.526
117.856
117.647
117.217
116.543
115.587
114.289
112.563
110.286
107.292
103.372
117.453
117.232
116.78
116.074
115.081
113.749
112.007
109.759
106.881
103.222
117.151
116.926
116.465
115.752
114.759
113.447
111.766
109.652
107.028
103.798
116.952
116.726
116.265
115.557
114.582
113.313
111.723
109.786
107.485
104.81
116.854
116.627
116.169
115.467
114.507
113.271
111.749
109.949
107.924
105.823
176.922
176.865
176.763
176.641
176.547
176.569
176.857
177.692
179.609
183.696
176.102
176.024
175.877
175.678
175.462
175.283
175.225
175.417
176.036
177.25
175.259
175.149
174.931
174.611
174.198
173.701
173.121
172.434
171.535
170.11
174.429
174.283
173.987
173.534
172.914
172.099
171.038
169.631
167.692
164.886
173.656
173.477
173.111
172.544
171.751
170.689
169.283
167.417
164.907
161.49
172.978
172.774
172.357
171.71
170.804
169.592
168
165.921
163.199
159.632
172.422
172.202
171.756
171.067
170.109
168.843
167.21
165.125
162.474
159.104
172.002
171.776
171.318
170.618
169.657
168.409
166.84
164.905
162.546
159.679
171.723
171.496
171.038
170.343
169.403
168.207
166.752
165.045
163.113
160.997
171.585
171.358
170.902
170.215
169.292
168.139
166.773
165.251
163.703
162.407
214.673
214.638
214.578
214.519
214.507
214.619
214.98
215.813
217.514
220.849
213.767
213.714
213.616
213.495
213.384
213.338
213.438
213.803
214.594
215.996
212.838
212.756
212.596
212.368
212.087
211.772
211.442
211.102
210.715
210.122
211.924
211.808
211.575
211.225
210.755
210.153
209.393
208.415
207.102
205.25
211.068
210.921
210.62
210.159
209.522
208.679
207.578
206.129
204.196
201.579
210.313
210.14
209.788
209.246
208.491
207.488
206.175
204.458
202.2
199.206
209.689
209.5
209.117
208.529
207.715
206.642
205.257
203.481
201.195
198.227
209.214
209.018
208.622
208.019
207.196
206.13
204.79
203.134
201.096
198.57
208.897
208.7
208.303
207.703
206.897
205.878
204.648
203.217
201.616
199.885
208.739
208.542
208.147
207.553
206.764
205.786
204.647
203.411
202.228
201.409
233.635
233.606
233.559
233.514
233.511
233.609
233.904
234.553
235.82
238.177
232.702
232.658
232.579
232.483
232.401
232.378
232.483
232.811
233.498
234.713
231.751
231.682
231.549
231.361
231.136
230.895
230.659
230.45
230.273
230.083
230.816
230.717
230.519
230.223
229.832
229.342
228.738
227.988
227.028
225.751
229.94
229.812
229.551
229.154
228.608
227.894
226.971
225.772
224.193
222.087
229.164
229.012
228.702
228.226
227.567
226.692
225.55
224.057
222.087
219.46
228.52
228.352
228.012
227.489
226.768
225.815
224.583
222.991
220.919
218.187
228.029
227.853
227.499
226.96
226.223
225.269
224.064
222.561
220.687
218.319
227.699
227.522
227.165
226.628
225.905
224.991
223.883
222.59
221.133
219.541
227.534
227.357
227.002
226.469
225.761
224.884
223.862
222.758
221.719
221.053
233.612
233.584
233.536
233.491
233.487
233.584
233.879
234.528
235.797
238.159
232.681
232.637
232.558
232.461
232.378
232.354
232.458
232.785
233.472
234.687
231.731
231.662
231.528
231.34
231.114
230.871
230.634
230.423
230.243
230.048
230.797
230.698
230.498
230.202
229.81
229.318
228.712
227.959
226.995
225.711
229.922
229.793
229.532
229.133
228.587
227.871
226.945
225.743
224.159
222.047
229.146
228.994
228.683
228.207
227.546
226.67
225.526
224.03
222.055
219.422
228.503
228.335
227.994
227.471
226.748
225.794
224.56
222.965
220.891
218.153
228.012
227.836
227.481
226.942
226.205
225.249
224.042
222.537
220.661
218.291
227.682
227.505
227.148
226.61
225.887
224.972
223.863
222.568
221.11
219.518
227.518
227.34
226.985
226.452
225.743
224.865
223.843
222.738
221.698
221.034
214.613
214.577
214.515
214.455
214.441
214.55
214.91
215.743
217.448
220.795
213.709
213.655
213.556
213.433
213.32
213.271
213.368
213.73
214.52
215.92
212.783
212.7
212.538
212.308
212.024
211.706
211.372
211.026
210.63
210.023
211.871
211.755
211.52
211.167
210.694
210.088
209.322
208.336
207.011
205.141
211.018
210.869
210.567
210.104
209.464
208.616
207.509
206.051
204.106
201.471
210.265
210.091
209.737
209.193
208.435
207.428
206.109
204.385
202.115
199.106
209.642
209.453
209.068
208.478
207.662
206.586
205.196
203.413
201.118
198.14
209.169
208.972
208.576
207.971
207.145
206.077
204.734
203.073
201.029
198.496
208.853
208.655
208.257
207.657
206.849
205.828
204.595
203.161
201.557
199.823
208.695
208.498
208.102
207.508
206.717
205.737
204.595
203.358
202.173
201.358
176.837
176.779
176.674
176.548
176.451
176.467
176.751
177.583
179.502
183.6
176.023
175.944
175.794
175.592
175.371
175.187
175.124
175.311
175.923
177.131
175.185
175.073
174.853
174.529
174.112
173.609
173.023
172.327
171.415
169.97
174.36
174.212
173.913
173.457
172.832
172.011
170.942
169.525
167.57
164.74
173.59
173.41
173.041
172.471
171.674
170.606
169.193
167.315
164.789
161.351
172.915
172.71
172.291
171.641
170.732
169.515
167.916
165.827
163.091
159.507
172.362
172.141
171.693
171.002
170.042
168.772
167.132
165.04
162.379
158.997
171.944
171.717
171.259
170.557
169.593
168.342
166.769
164.828
162.463
159.589
171.667
171.439
170.98
170.284
169.342
168.144
166.686
164.975
163.039
160.922
171.529
171.302
170.846
170.157
169.233
168.078
166.709
165.185
163.636
162.343
120.695
120.611
120.45
120.225
119.967
119.734
119.641
119.914
121.022
123.97
120.089
119.985
119.78
119.481
119.103
118.672
118.237
117.875
117.691
117.762
119.467
119.334
119.067
118.659
118.104
117.386
116.474
115.3
113.698
111.272
118.858
118.694
118.36
117.84
117.107
116.116
114.789
112.994
110.499
106.912
118.294
118.103
117.712
117.098
116.225
115.034
113.433
111.282
108.371
104.409
117.802
117.592
117.16
116.484
115.525
114.222
112.491
110.206
107.203
103.27
117.402
117.181
116.727
116.02
115.024
113.689
111.942
109.688
106.803
103.136
117.103
116.876
116.415
115.701
114.706
113.392
111.707
109.589
106.96
103.725
116.905
116.678
116.217
115.508
114.532
113.261
111.668
109.729
107.425
104.749
116.807
116.581
116.122
115.419
114.458
113.22
111.696
109.894
107.869
105.772
46.4975
46.4392
46.3204
46.1377
45.8867
45.5647
45.1765
44.7487
44.3665
44.2671
46.2622
46.1939
46.0537
45.8344
45.5246
45.1075
44.5588
43.8429
42.9
41.607
46.0229
45.942
45.7742
45.5073
45.1203
44.5786
43.8258
42.7661
41.2297
38.8967
45.7906
45.6967
45.501
45.187
44.726
44.0712
43.1473
41.8331
39.9316
37.1245
45.5772
45.4723
45.2534
44.9016
44.3844
43.6498
42.6175
41.165
39.1072
36.1725
45.3926
45.2799
45.0451
44.6688
44.1179
43.341
42.2608
40.7639
38.6864
35.7977
45.2432
45.126
44.8827
44.4946
43.9304
43.1422
42.0598
40.5816
38.5637
35.8042
45.1319
45.0129
44.7667
44.3761
43.8126
43.0335
41.9765
40.553
38.6372
36.0492
45.0587
44.9394
44.6935
44.3051
43.7487
42.9862
41.9639
40.6063
38.8081
36.4169
45.0226
44.9036
44.6585
44.2725
43.7218
42.9716
41.974
40.665
38.9623
36.7639
49.9955
49.9954
49.9954
49.9954
49.9953
49.9953
49.9952
49.9951
49.995
49.9949
49.9959
49.9959
49.9959
49.9958
49.9958
49.9957
49.9956
49.9955
49.9954
49.9953
49.9968
49.9968
49.9968
49.9968
49.9967
49.9967
49.9966
49.9965
49.9963
49.9962
49.9984
49.9984
49.9984
49.9984
49.9984
49.9983
49.9982
49.9981
49.9979
49.9978
50.0008
50.0009
50.001
50.001
50.001
50.001
50.0009
50.0007
50.0005
50.0003
50.0045
50.0048
50.005
50.0051
50.0052
50.0051
50.005
50.0049
50.0046
50.0042
50.0102
50.0107
50.0111
50.0115
50.0117
50.0117
50.0117
50.0114
50.0111
50.0105
50.019
50.02
50.0209
50.0216
50.022
50.0223
50.0223
50.022
50.0215
50.0207
50.0327
50.0348
50.0365
50.0379
50.039
50.0396
50.0398
50.0395
50.0387
50.0375
50.0545
50.0586
50.0621
50.0649
50.067
50.0684
50.0689
50.0686
50.0676
50.0657
129.986
129.986
129.986
129.986
129.986
129.986
129.985
129.985
129.985
129.985
129.987
129.987
129.987
129.987
129.986
129.986
129.986
129.986
129.986
129.985
129.988
129.988
129.988
129.988
129.988
129.988
129.987
129.987
129.987
129.987
129.99
129.99
129.99
129.99
129.99
129.99
129.99
129.989
129.989
129.989
129.994
129.994
129.994
129.994
129.993
129.993
129.993
129.993
129.992
129.992
129.998
129.998
129.998
129.998
129.998
129.998
129.997
129.997
129.997
129.996
130.004
130.004
130.004
130.004
130.004
130.004
130.004
130.003
130.003
130.002
130.011
130.012
130.012
130.012
130.012
130.012
130.012
130.011
130.011
130.01
130.021
130.022
130.022
130.023
130.023
130.023
130.023
130.022
130.021
130.02
130.034
130.035
130.036
130.037
130.037
130.037
130.037
130.036
130.035
130.033
189.975
189.975
189.975
189.974
189.974
189.974
189.974
189.974
189.973
189.973
189.975
189.975
189.975
189.975
189.975
189.975
189.974
189.974
189.974
189.974
189.976
189.976
189.976
189.976
189.976
189.976
189.975
189.975
189.975
189.975
189.978
189.978
189.978
189.978
189.977
189.977
189.977
189.977
189.976
189.976
189.98
189.98
189.98
189.98
189.98
189.98
189.979
189.979
189.979
189.978
189.983
189.983
189.983
189.983
189.983
189.982
189.982
189.982
189.981
189.981
189.987
189.987
189.987
189.987
189.987
189.986
189.986
189.985
189.985
189.984
189.992
189.992
189.992
189.991
189.991
189.991
189.99
189.99
189.989
189.989
189.997
189.997
189.997
189.997
189.997
189.997
189.996
189.996
189.995
189.994
190.003
190.003
190.003
190.003
190.003
190.003
190.002
190.002
190.001
190
229.963
229.962
229.962
229.962
229.962
229.962
229.962
229.962
229.961
229.961
229.963
229.963
229.963
229.963
229.962
229.962
229.962
229.962
229.962
229.962
229.963
229.963
229.963
229.963
229.963
229.963
229.963
229.963
229.962
229.962
229.964
229.964
229.964
229.964
229.964
229.964
229.964
229.963
229.963
229.963
229.966
229.966
229.965
229.965
229.965
229.965
229.965
229.965
229.964
229.964
229.967
229.967
229.967
229.967
229.967
229.967
229.966
229.966
229.966
229.966
229.969
229.969
229.969
229.969
229.969
229.968
229.968
229.968
229.968
229.967
229.972
229.972
229.971
229.971
229.971
229.971
229.971
229.97
229.97
229.97
229.974
229.974
229.974
229.974
229.974
229.973
229.973
229.973
229.972
229.972
229.978
229.978
229.977
229.977
229.977
229.977
229.976
229.976
229.975
229.975
249.952
249.952
249.952
249.952
249.951
249.951
249.951
249.951
249.951
249.951
249.952
249.952
249.952
249.952
249.952
249.952
249.951
249.951
249.951
249.951
249.952
249.952
249.952
249.952
249.952
249.952
249.952
249.952
249.952
249.951
249.952
249.952
249.952
249.952
249.952
249.952
249.952
249.952
249.952
249.952
249.953
249.953
249.953
249.953
249.952
249.952
249.952
249.952
249.952
249.952
249.953
249.953
249.953
249.953
249.953
249.953
249.953
249.953
249.953
249.953
249.954
249.954
249.954
249.954
249.954
249.953
249.953
249.953
249.953
249.953
249.954
249.954
249.954
249.954
249.954
249.954
249.954
249.954
249.954
249.954
249.955
249.955
249.955
249.955
249.955
249.955
249.955
249.955
249.955
249.955
249.956
249.956
249.956
249.956
249.956
249.955
249.955
249.955
249.955
249.955
249.944
249.944
249.944
249.944
249.944
249.944
249.944
249.944
249.944
249.945
249.944
249.944
249.944
249.944
249.944
249.944
249.944
249.944
249.944
249.944
249.944
249.944
249.944
249.944
249.944
249.944
249.944
249.944
249.944
249.944
249.943
249.943
249.944
249.944
249.944
249.944
249.944
249.944
249.944
249.944
249.943
249.943
249.943
249.943
249.943
249.943
249.943
249.943
249.944
249.944
249.943
249.943
249.943
249.943
249.943
249.943
249.943
249.943
249.943
249.943
249.942
249.942
249.942
249.942
249.942
249.942
249.942
249.942
249.943
249.943
249.941
249.941
249.941
249.941
249.941
249.942
249.942
249.942
249.942
249.942
249.94
249.94
249.94
249.94
249.941
249.941
249.941
249.941
249.941
249.941
249.94
249.94
249.94
249.94
249.94
249.94
249.94
249.94
249.941
249.941
229.942
229.942
229.942
229.942
229.942
229.942
229.942
229.942
229.943
229.943
229.941
229.941
229.941
229.942
229.942
229.942
229.942
229.942
229.942
229.943
229.941
229.941
229.941
229.941
229.941
229.941
229.941
229.942
229.942
229.942
229.94
229.94
229.94
229.94
229.94
229.94
229.94
229.941
229.941
229.941
229.938
229.938
229.939
229.939
229.939
229.939
229.939
229.939
229.94
229.94
229.937
229.937
229.937
229.937
229.937
229.937
229.938
229.938
229.938
229.938
229.935
229.935
229.935
229.935
229.935
229.936
229.936
229.936
229.936
229.937
229.932
229.933
229.933
229.933
229.933
229.933
229.934
229.934
229.934
229.935
229.93
229.93
229.93
229.93
229.93
229.931
229.931
229.931
229.932
229.932
229.926
229.927
229.927
229.927
229.927
229.927
229.928
229.928
229.929
229.929
189.946
189.946
189.946
189.946
189.947
189.947
189.947
189.947
189.947
189.948
189.945
189.946