/*--------------------------------*- C++ -*----------------------------------*\
| =========                 |                                                 |
| \\      /  F ield         | OpenFOAM: The Open Source CFD Toolbox           |
|  \\    /   O peration     | Version:  2.4.0                                 |
|   \\  /    A nd           | Web:      www.OpenFOAM.org                      |
|    \\/     M anipulation  |                                                 |
\*---------------------------------------------------------------------------*/
FoamFile
{
    version     2.0;
    format      ascii;
    class       volScalarField;
    location    "0.01";
    object      rho;
}
// * * * * * * * * * * * * * * * * * * * * * * * * * * * * * * * * * * * * * //

dimensions      [0 -3 1 0 0 1 0];

internalField   nonuniform List<scalar> 
9000
(
1.68984e-52
1.8558e-49
1.32103e-46
7.16008e-44
2.96198e-41
9.02007e-39
1.92548e-36
2.72184e-34
2.38251e-32
1.16709e-30
1.65462e-48
1.68032e-45
1.07834e-42
5.16513e-40
1.86069e-37
4.88546e-35
8.94235e-33
1.08276e-30
8.13759e-29
3.45294e-27
7.60454e-45
7.10412e-42
4.08244e-39
1.71419e-36
5.32832e-34
1.19405e-31
1.85368e-29
1.90032e-27
1.21279e-25
4.39907e-24
2.15316e-41
1.83585e-38
9.35218e-36
3.40231e-33
9.00712e-31
1.6985e-28
2.20258e-26
1.88101e-24
1.0022e-22
3.05706e-21
4.16134e-38
3.20484e-35
1.42822e-32
4.4332e-30
9.82735e-28
1.53095e-25
1.6258e-23
1.13242e-21
4.92604e-20
1.23546e-18
5.77057e-35
3.96359e-32
1.5203e-29
3.95106e-27
7.18175e-25
9.03361e-23
7.66412e-21
4.23979e-19
1.46405e-17
2.93415e-16
5.89928e-32
3.56147e-29
1.15379e-26
2.4555e-24
3.56955e-22
3.52692e-20
2.31959e-18
9.86332e-17
2.61066e-15
4.03429e-14
4.51705e-29
2.3599e-26
6.32527e-24
1.07517e-21
1.21454e-19
9.12559e-18
4.48717e-16
1.40887e-14
2.73547e-13
3.1144e-12
2.61759e-26
1.16602e-23
2.53219e-21
3.34739e-19
2.84563e-17
1.56613e-15
5.51381e-14
1.21629e-12
1.63709e-11
1.2922e-10
1.15763e-23
4.34698e-21
7.50691e-19
7.51731e-17
4.64848e-15
1.79682e-13
4.30375e-12
6.26859e-11
5.4241e-10
2.71955e-09
1.22279e-53
1.13897e-50
6.09467e-48
2.36566e-45
7.08268e-43
1.65051e-40
2.96373e-38
3.9164e-36
3.39642e-34
1.41096e-32
5.90932e-50
5.17613e-47
2.56263e-44
9.08069e-42
2.45677e-39
5.13684e-37
8.19627e-35
9.61412e-33
7.42546e-31
2.76851e-29
1.3532e-46
1.11051e-43
5.06385e-41
1.62959e-38
3.96098e-36
7.38436e-34
1.04441e-31
1.07861e-29
7.35493e-28
2.43903e-26
1.93619e-43
1.48111e-40
6.18221e-38
1.79419e-35
3.88825e-33
6.41105e-31
7.97914e-29
7.2249e-27
4.29797e-25
1.25237e-23
1.9261e-40
1.36465e-37
5.17399e-35
1.34241e-32
2.56935e-30
3.70957e-28
4.02113e-26
3.16183e-24
1.62877e-22
4.10478e-21
1.40547e-37
9.15373e-35
3.12377e-32
7.17076e-30
1.19851e-27
1.49719e-25
1.3963e-23
9.41876e-22
4.15178e-20
8.92178e-19
7.75089e-35
4.60144e-32
1.39877e-29
2.80721e-27
4.04368e-25
4.30992e-23
3.409e-21
1.94534e-19
7.23607e-18
1.30216e-16
3.28682e-32
1.76276e-29
4.71984e-27
8.17212e-25
9.9945e-23
8.9426e-21
5.89968e-19
2.80319e-17
8.6653e-16
1.27667e-14
1.08238e-29
5.19846e-27
1.21193e-24
1.78476e-22
1.82247e-20
1.34342e-18
7.24787e-17
2.81579e-15
7.11704e-14
8.35131e-13
2.78245e-27
1.18796e-24
2.38548e-22
2.94487e-20
2.46517e-18
1.46462e-16
6.30671e-15
1.96034e-13
3.98595e-12
3.5984e-11
3.09792e-58
5.19276e-55
4.46822e-52
2.48086e-49
9.07252e-47
2.22164e-44
3.92803e-42
5.25765e-40
4.87923e-38
2.1439e-36
1.51445e-54
2.41324e-51
1.95197e-48
1.00879e-45
3.40701e-43
7.66253e-41
1.24054e-38
1.51957e-36
1.29311e-34
5.23879e-33
3.54969e-51
5.3637e-48
4.06576e-45
1.94875e-42
6.05301e-40
1.24449e-37
1.8353e-35
2.04567e-33
1.58642e-31
5.88752e-30
5.26486e-48
7.53609e-45
5.35347e-42
2.37324e-39
6.74342e-37
1.25978e-34
1.68102e-32
1.69248e-30
1.18664e-28
4.00073e-27
5.49782e-45
7.42806e-42
4.92803e-39
2.02038e-36
5.25598e-34
8.88095e-32
1.06339e-29
9.58314e-28
6.015e-26
1.8234e-24
4.27415e-42
5.42957e-39
3.35227e-36
1.26745e-33
3.00748e-31
4.58613e-29
4.91746e-27
3.92311e-25
2.17819e-23
5.86285e-22
2.55277e-39
3.03641e-36
1.73864e-33
6.04925e-31
1.30482e-28
1.78408e-26
1.7001e-24
1.19896e-22
5.80478e-21
1.3664e-19
1.19237e-36
1.32221e-33
6.99842e-31
2.2387e-28
4.37879e-26
5.33222e-24
4.4731e-22
2.76025e-20
1.15893e-18
2.34183e-17
4.39475e-34
4.52217e-31
2.20549e-28
6.49439e-26
1.15122e-23
1.24012e-21
9.06124e-20
4.83697e-18
1.74193e-16
2.9712e-15
1.28125e-31
1.21706e-28
5.4475e-26
1.48363e-23
2.3903e-21
2.26329e-19
1.42323e-17
6.48653e-16
1.9006e-14
2.50003e-13
9.41848e-63
1.70237e-59
1.66732e-56
1.0947e-53
4.67711e-51
1.32803e-48
2.60242e-46
3.81701e-44
3.71822e-42
1.64023e-40
5.83564e-59
1.00972e-55
9.40588e-53
5.84013e-50
2.34884e-47
6.2579e-45
1.14852e-42
1.57709e-40
1.44007e-38
5.97781e-37
1.7424e-55
2.87991e-52
2.5454e-49
1.49044e-46
5.62507e-44
1.40127e-41
2.39929e-39
3.07123e-37
2.61642e-35
1.01691e-33
3.34079e-52
5.26216e-49
4.40024e-46
2.42178e-43
8.5444e-41
1.98174e-38
3.15065e-36
3.73993e-34
2.95555e-32
1.06902e-30
4.62605e-49
6.92528e-46
5.46086e-43
2.81412e-40
9.2404e-38
1.98535e-35
2.9143e-33
3.188e-31
2.32106e-29
7.75591e-28
4.93496e-46
7.0002e-43
5.18599e-40
2.49122e-37
7.57426e-35
1.49874e-32
2.01793e-30
2.0194e-28
1.34354e-26
4.11161e-25
4.22684e-43
5.66209e-40
3.92452e-37
1.74864e-34
4.89416e-32
8.85918e-30
1.08582e-27
9.53076e-26
5.52435e-24
1.48228e-22
2.94935e-40
3.72385e-37
2.41598e-34
1.00028e-31
2.54479e-29
3.96723e-27
4.20608e-25
3.20027e-23
1.60741e-21
3.73351e-20
1.70456e-37
2.01792e-34
1.18781e-31
4.35557e-29
9.75591e-27
1.32576e-24
1.21412e-22
7.94423e-21
3.41027e-19
6.72853e-18
7.61996e-35
8.28213e-32
4.39844e-29
1.44377e-26
2.86488e-24
3.40531e-22
2.69342e-20
1.49173e-18
5.34669e-17
8.70916e-16
2.18242e-66
4.08432e-63
4.13135e-60
2.80152e-57
1.23541e-54
3.59995e-52
7.26483e-50
1.09252e-47
1.09185e-45
4.93725e-44
1.56729e-62
2.81386e-59
2.71335e-56
1.74498e-53
7.26603e-51
1.99025e-48
3.77244e-46
5.32064e-44
4.99584e-42
2.13225e-40
5.48543e-59
9.43164e-56
8.65377e-53
5.26749e-50
2.06647e-47
5.30566e-45
9.41743e-43
1.241e-40
1.09016e-38
4.37192e-37
1.23456e-55
2.02865e-52
1.76663e-49
1.0149e-46
3.73894e-44
8.96001e-42
1.48259e-39
1.81511e-37
1.48253e-35
5.55027e-34
1.99323e-52
3.12253e-49
2.57275e-46
1.38985e-43
4.78765e-41
1.06463e-38
1.63219e-36
1.8419e-34
1.38667e-32
4.80273e-31
2.44448e-49
3.64048e-46
2.82707e-43
1.42966e-40
4.57989e-38
9.37675e-36
1.32105e-33
1.35894e-31
9.31337e-30
2.9455e-28
2.35361e-46
3.32124e-43
2.41944e-40
1.1389e-37
3.36945e-35
6.28254e-33
8.0412e-31
7.41366e-29
4.53465e-27
1.28185e-25
1.81016e-43
2.41089e-40
1.63752e-37
7.12218e-35
1.9276e-32
3.21823e-30
3.67489e-28
3.00655e-26
1.62592e-24
4.05602e-23
1.12082e-40
1.40099e-37
8.77585e-35
3.4757e-32
8.50585e-30
1.27341e-27
1.29441e-25
9.32652e-24
4.40949e-22
9.57744e-21
5.54695e-38
6.45683e-35
3.71776e-32
1.34247e-29
2.97051e-27
3.98778e-25
3.60947e-23
2.27595e-21
9.316e-20
1.74409e-18
6.4252e-70
1.23896e-66
1.28509e-63
8.90923e-61
4.00646e-58
1.18575e-55
2.43319e-53
3.71516e-51
3.77597e-49
1.73884e-47
4.95776e-66
9.18729e-63
9.10143e-60
5.99724e-57
2.55276e-54
7.11578e-52
1.37484e-49
1.97282e-47
1.88813e-45
8.22748e-44
1.87343e-62
3.33115e-59
3.14644e-56
1.96712e-53
7.91028e-51
2.0713e-48
3.75784e-46
5.04936e-44
4.53215e-42
1.86054e-40
4.57237e-59
7.78621e-56
6.9959e-53
4.13909e-50
1.5678e-47
3.84092e-45
6.51571e-43
8.15391e-41
6.82221e-39
2.62162e-37
8.03146e-56
1.30685e-52
1.11366e-49
6.21433e-47
2.20855e-44
5.03479e-42
7.94022e-40
9.18584e-38
7.10471e-36
2.53306e-34
1.07323e-52
1.66425e-49
1.34024e-46
7.02374e-44
2.33061e-41
4.90981e-39
7.14479e-37
7.56837e-35
5.35203e-33
1.74924e-31
1.1259e-49
1.65872e-46
1.2568e-43
6.15364e-41
1.89505e-38
3.65894e-36
4.86792e-34
4.66939e-32
2.97958e-30
8.793e-29
9.44042e-47
1.31652e-43
9.33621e-41
4.24416e-38
1.20478e-35
2.11518e-33
2.54833e-31
2.19771e-29
1.25554e-27
3.31186e-26
6.3949e-44
8.40549e-41
5.54709e-38
2.32546e-35
6.05064e-33
9.67213e-31
1.05511e-28
8.14689e-27
4.13828e-25
9.67916e-24
3.53005e-41
4.35685e-38
2.67385e-35
1.03565e-32
2.47383e-30
3.60867e-28
3.57544e-26
2.47227e-24
1.11501e-22
2.31066e-21
1.74716e-73
3.47041e-70
3.69559e-67
2.62439e-64
1.20656e-61
3.64123e-59
7.62179e-57
1.18615e-54
1.23015e-52
5.78535e-51
1.42349e-69
2.72138e-66
2.77216e-63
1.8744e-60
8.17243e-58
2.3269e-55
4.59537e-53
6.73388e-51
6.59001e-49
2.93938e-47
5.70662e-66
1.04849e-62
1.02004e-59
6.55604e-57
2.70596e-54
7.25061e-52
1.34745e-49
1.85264e-47
1.70402e-45
7.17731e-44
1.48434e-62
2.61639e-59
2.42561e-56
1.47832e-53
5.76038e-51
1.44702e-48
2.52036e-46
3.23452e-44
2.77977e-42
1.09871e-40
2.79011e-59
4.7082e-56
4.14794e-53
2.38963e-50
8.75885e-48
2.05239e-45
3.33241e-43
3.96447e-41
3.15852e-39
1.16158e-37
4.0042e-56
6.45272e-53
5.38415e-50
2.92057e-47
1.00251e-44
2.17808e-42
3.27474e-40
3.58153e-38
2.61961e-36
8.86633e-35
4.52727e-53
6.94732e-50
5.46864e-47
2.78021e-44
8.89176e-42
1.77989e-39
2.4597e-37
2.45212e-35
1.62975e-33
5.01498e-32
4.11127e-50
5.98839e-47
4.42809e-44
2.09954e-41
6.22476e-39
1.14298e-36
1.44343e-34
1.30496e-32
7.83262e-31
2.17404e-29
3.04478e-47
4.19579e-44
2.90454e-41
1.27985e-38
3.50783e-36
5.92147e-34
6.84466e-32
5.6032e-30
3.02633e-28
7.54526e-27
1.87895e-44
2.44468e-41
1.58568e-38
6.51258e-36
1.65541e-33
2.57974e-31
2.74347e-29
2.04198e-27
9.95813e-26
2.23957e-24
4.29963e-77
8.79446e-74
9.62261e-71
7.01053e-68
3.30223e-65
1.01935e-62
2.18268e-60
3.47338e-58
3.6861e-56
1.77459e-54
3.66574e-73
7.22634e-70
7.57442e-67
5.26242e-64
2.35475e-61
6.86916e-59
1.39031e-56
2.08712e-54
2.09437e-52
9.58387e-51
1.54464e-69
2.93071e-66
2.93819e-63
1.94362e-60
8.24782e-58
2.26816e-55
4.32841e-53
6.1087e-51
5.77355e-49
2.5006e-47
4.24157e-66
7.73273e-63
7.39959e-60
4.64978e-57
1.86641e-54
4.82097e-52
8.64105e-50
1.14077e-47
1.00975e-45
4.1141e-44
8.45227e-63
1.47768e-59
1.34611e-56
8.01125e-54
3.03148e-51
7.32053e-49
1.22616e-46
1.50445e-44
1.2379e-42
4.70606e-41
1.29113e-59
2.15961e-56
1.86695e-53
1.0485e-50
3.72508e-48
8.36461e-46
1.30131e-43
1.47287e-41
1.11663e-39
3.92102e-38
1.56042e-56
2.4906e-53
2.03598e-50
1.07456e-47
3.56833e-45
7.41252e-43
1.06446e-40
1.10355e-38
7.64185e-37
2.45267e-35
1.52342e-53
2.31364e-50
1.78213e-47
8.80399e-45
2.72187e-42
5.21684e-40
6.88878e-38
6.51698e-36
4.10204e-34
1.19576e-32
1.22554e-50
1.76634e-47
1.27922e-44
5.90401e-42
1.69732e-39
3.01061e-37
3.66593e-35
3.1656e-33
1.80861e-31
4.78036e-30
8.41467e-48
1.1497e-44
7.84247e-42
3.39428e-39
9.11289e-37
1.50398e-34
1.69969e-32
1.34829e-30
7.03561e-29
1.69816e-27
9.58396e-81
2.01757e-77
2.26901e-74
1.69746e-71
8.20314e-69
2.59532e-66
5.69552e-64
9.2872e-62
1.01036e-59
4.98626e-58
8.50028e-77
1.72683e-73
1.86289e-70
1.33094e-67
6.11963e-65
1.83262e-62
3.80825e-60
5.86883e-58
6.04931e-56
2.84376e-54
3.74254e-73
7.32757e-70
7.5717e-67
5.15855e-64
2.25313e-61
6.37154e-59
1.25071e-56
1.81561e-54
1.76642e-52
7.87743e-51
1.07848e-69
2.03189e-66
2.00707e-63
1.3011e-60
5.38514e-58
1.43302e-55
2.64746e-53
3.60279e-51
3.29037e-49
1.38379e-47
2.26478e-66
4.09827e-63
3.86017e-60
2.37429e-57
9.28251e-55
2.31417e-52
4.00443e-50
5.07723e-48
4.32192e-46
1.7007e-44
3.66076e-63
6.34878e-60
5.68528e-57
3.30653e-54
1.21646e-51
2.82718e-49
4.55628e-47
5.34517e-45
4.20591e-43
1.53388e-41
4.70157e-60
7.79548e-57
6.61506e-54
3.62409e-51
1.24958e-48
2.69536e-46
4.02353e-44
4.34024e-42
3.1325e-40
1.04876e-38
4.90346e-57
7.75277e-54
6.21494e-51
3.19644e-48
1.02954e-45
2.05758e-43
2.83725e-41
2.80612e-39
1.85027e-37
5.65701e-36
4.25187e-54
6.39629e-51
4.83668e-48
2.33292e-45
7.017e-43
1.30403e-40
1.66704e-38
1.51382e-36
9.11884e-35
2.54568e-33
3.22202e-51
4.60913e-48
3.29517e-45
1.49694e-42
4.22557e-40
7.34718e-38
8.77107e-36
7.36947e-34
4.08716e-32
1.05097e-30
1.93644e-84
4.193e-81
4.84682e-78
3.72484e-75
1.84819e-72
6.00043e-70
1.35108e-67
2.26021e-65
2.52306e-63
1.27712e-61
1.77898e-80
3.72174e-77
4.13202e-74
3.03682e-71
1.43577e-68
4.41915e-66
9.43815e-64
1.49494e-61
1.58424e-59
7.65474e-58
8.15107e-77
1.6456e-73
1.75238e-70
1.22995e-67
5.53266e-65
1.61076e-62
3.25563e-60
4.86705e-58
4.87875e-56
2.24135e-54
2.45566e-73
4.77716e-70
4.87014e-67
3.25763e-64
1.39099e-61
3.81778e-59
7.27689e-57
1.02202e-54
9.63947e-53
4.18668e-51
5.41543e-70
1.01336e-66
9.86661e-64
6.27272e-61
2.53477e-58
6.53097e-56
1.16853e-53
1.53274e-51
1.35096e-49
5.50541e-48
9.23211e-67
1.65834e-63
1.53776e-60
9.2617e-58
3.52915e-55
8.49623e-53
1.41931e-50
1.72728e-48
1.41152e-46
5.34801e-45
1.25584e-63
2.16048e-60
1.90207e-57
1.08142e-54
3.87104e-52
8.67228e-50
1.34578e-47
1.51078e-45
1.13639e-43
3.96744e-42
1.39338e-60
2.29026e-57
1.90895e-54
1.02136e-51
3.42454e-49
7.1305e-47
1.02564e-44
1.0596e-42
7.31122e-41
2.34124e-39
1.29275e-57
2.02617e-54
1.59705e-51
8.03639e-49
2.52422e-46
4.90445e-44
6.56576e-42
6.25519e-40
3.96212e-38
1.1646e-36
1.06524e-54
1.59157e-51
1.18941e-48
5.65489e-46
1.67284e-43
3.05307e-41
3.83381e-39
3.39656e-37
1.99213e-35
5.42696e-34
3.93836e-21
1.24134e-18
1.68268e-16
1.24764e-14
5.42885e-13
1.40973e-11
2.16792e-10
1.93278e-09
9.71272e-09
2.70264e-08
5.21645e-21
1.56968e-18
2.035e-16
1.44715e-14
6.06155e-13
1.5218e-11
2.27375e-10
1.98008e-09
9.7701e-09
2.68244e-08
5.22695e-21
1.57192e-18
2.03678e-16
1.44773e-14
6.06164e-13
1.52138e-11
2.2727e-10
1.979e-09
9.7649e-09
2.68058e-08
5.22454e-21
1.57128e-18
2.03607e-16
1.44729e-14
6.06009e-13
1.52106e-11
2.27231e-10
1.97873e-09
9.76393e-09
2.68029e-08
5.22421e-21
1.57117e-18
2.03594e-16
1.44721e-14
6.05982e-13
1.521e-11
2.27224e-10
1.97868e-09
9.76375e-09
2.68024e-08
5.22405e-21
1.57115e-18
2.03592e-16
1.44721e-14
6.0598e-13
1.521e-11
2.27223e-10
1.97868e-09
9.76374e-09
2.68023e-08
5.22451e-21
1.57126e-18
2.03604e-16
1.44727e-14
6.06003e-13
1.52104e-11
2.27229e-10
1.97872e-09
9.76385e-09
2.68026e-08
5.22645e-21
1.57179e-18
2.03665e-16
1.44765e-14
6.06135e-13
1.52132e-11
2.27262e-10
1.97893e-09
9.76453e-09
2.68045e-08
5.21676e-21
1.56973e-18
2.035e-16
1.4471e-14
6.06117e-13
1.52165e-11
2.27346e-10
1.97976e-09
9.76819e-09
2.68174e-08
3.96147e-21
1.24734e-18
1.68932e-16
1.25158e-14
5.44208e-13
1.41216e-11
2.17006e-10
1.93316e-09
9.7055e-09
2.6985e-08
5.59356e-25
2.11426e-22
3.62598e-20
3.70183e-18
2.49192e-16
1.16306e-14
3.87103e-13
9.35429e-12
1.50809e-10
9.99682e-10
6.5128e-25
2.33133e-22
3.79205e-20
3.68023e-18
2.3621e-16
1.05518e-14
3.37688e-13
7.88871e-12
1.36569e-10
9.45735e-10
6.35692e-25
2.2749e-22
3.69949e-20
3.59002e-18
2.30425e-16
1.02945e-14
3.29546e-13
7.70234e-12
1.33445e-10
9.35167e-10
6.31971e-25
2.26201e-22
3.67926e-20
3.57111e-18
2.29258e-16
1.02443e-14
3.28006e-13
7.66795e-12
1.32879e-10
9.33275e-10
6.312e-25
2.25944e-22
3.67527e-20
3.56738e-18
2.29028e-16
1.02345e-14
3.27702e-13
7.66114e-12
1.32769e-10
9.32906e-10
6.31181e-25
2.25927e-22
3.67495e-20
3.56707e-18
2.29008e-16
1.02336e-14
3.27676e-13
7.66061e-12
1.3276e-10
9.32873e-10
6.31586e-25
2.2607e-22
3.6772e-20
3.56915e-18
2.29136e-16
1.02392e-14
3.27854e-13
7.66484e-12
1.32837e-10
9.33126e-10
6.3397e-25
2.26876e-22
3.68964e-20
3.58067e-18
2.29847e-16
1.02701e-14
3.28833e-13
7.68794e-12
1.33247e-10
9.34458e-10
6.43488e-25
2.30308e-22
3.74594e-20
3.6359e-18
2.33442e-16
1.04345e-14
3.34266e-13
7.82019e-12
1.35644e-10
9.4231e-10
4.94178e-25
1.85696e-22
3.17418e-20
3.24134e-18
2.19293e-16
1.03508e-14
3.50861e-13
8.68141e-12
1.46509e-10
9.81877e-10
2.94595e-29
2.56701e-26
1.04629e-23
2.6636e-21
3.93689e-19
3.25911e-17
1.73924e-15
6.23318e-14
1.40622e-12
1.41103e-11
2.39924e-29
1.97466e-26
7.61257e-24
1.83702e-21
3.13281e-19
2.7314e-17
1.47042e-15
5.30574e-14
1.2725e-12
1.33503e-11
2.13503e-29
1.76023e-26
6.79806e-24
1.64373e-21
2.80976e-19
2.54731e-17
1.39454e-15
5.08013e-14
1.22736e-12
1.30626e-11
2.07719e-29
1.71369e-26
6.62274e-24
1.60246e-21
2.74125e-19
2.50886e-17
1.37901e-15
5.03491e-14
1.21845e-12
1.30044e-11
2.06598e-29
1.7044e-26
6.58734e-24
1.59398e-21
2.7266e-19
2.50075e-17
1.37576e-15
5.0255e-14
1.21659e-12
1.2992e-11
2.06446e-29
1.70345e-26
6.58425e-24
1.59341e-21
2.72625e-19
2.50046e-17
1.37562e-15
5.02504e-14
1.2165e-12
1.29915e-11
2.07185e-29
1.70945e-26
6.60764e-24
1.59912e-21
2.73585e-19
2.50565e-17
1.37765e-15
5.0309e-14
1.21767e-12
1.29991e-11
2.10843e-29
1.74007e-26
6.72773e-24
1.62868e-21
2.78734e-19
2.53356e-17
1.38864e-15
5.06254e-14
1.22395e-12
1.30397e-11
2.27558e-29
1.88111e-26
7.28774e-24
1.76792e-21
3.03014e-19
2.66767e-17
1.44286e-15
5.22319e-14
1.25647e-12
1.32415e-11
1.93809e-29
1.74891e-26
7.43465e-24
1.97678e-21
3.19521e-19
2.74839e-17
1.51216e-15
5.61493e-14
1.33376e-12
1.36103e-11
2.68817e-32
2.68315e-29
1.28717e-26
3.78388e-24
6.63719e-22
6.86771e-20
4.67102e-18
2.15224e-16
6.31295e-15
8.44531e-14
2.25175e-32
2.13658e-29
9.84861e-27
2.86613e-24
5.60193e-22
6.04089e-20
4.13563e-18
1.91968e-16
5.97852e-15
8.39521e-14
1.93527e-32
1.84411e-29
8.55064e-27
2.50732e-24
4.95955e-22
5.54952e-20
3.86877e-18
1.81626e-16
5.71077e-15
8.15561e-14
1.86337e-32
1.77815e-29
8.26018e-27
2.42758e-24
4.81732e-22
5.43975e-20
3.80934e-18
1.7934e-16
5.65156e-15
8.09871e-14
1.84851e-32
1.76481e-29
8.2017e-27
2.41151e-24
4.78844e-22
5.41768e-20
3.79745e-18
1.78883e-16
5.63969e-15
8.08717e-14
1.84724e-32
1.76339e-29
8.19531e-27
2.40982e-24
4.78565e-22
5.41521e-20
3.79601e-18
1.78826e-16
5.63814e-15
8.08546e-14
1.85682e-32
1.77248e-29
8.23623e-27
2.4213e-24
4.80656e-22
5.43127e-20
3.80461e-18
1.79153e-16
5.64662e-15
8.09387e-14
1.90462e-32
1.81678e-29
8.43478e-27
2.47709e-24
4.9085e-22
5.50825e-20
3.8455e-18
1.80703e-16
5.68623e-15
8.13107e-14
2.10563e-32
2.00701e-29
9.30312e-27
2.72495e-24
5.36565e-22
5.85057e-20
4.02828e-18
1.87704e-16
5.86508e-15
8.28296e-14
1.63577e-32
1.68475e-29
8.47006e-27
2.65442e-24
5.1239e-22
5.5423e-20
3.89887e-18
1.86783e-16
5.83333e-15
7.9903e-14
2.23711e-35
2.42459e-32
1.28375e-29
4.22072e-27
8.43033e-25
1.01465e-22
8.19598e-21
4.52839e-19
1.60617e-17
2.60501e-16
2.08968e-35
2.1498e-32
1.09224e-29
3.55455e-27
7.89175e-25
9.96206e-23
8.07412e-21
4.4804e-19
1.6834e-17
2.85959e-16
1.78979e-35
1.84907e-32
9.44905e-30
3.09887e-27
6.99624e-25
9.16448e-23
7.56368e-21
4.24482e-19
1.61011e-17
2.78163e-16
1.71799e-35
1.77753e-32
9.10095e-30
2.99175e-27
6.78339e-25
8.96823e-23
7.43592e-21
4.18529e-19
1.59122e-17
2.75863e-16
1.70275e-35
1.76205e-32
9.02508e-30
2.9683e-27
6.73593e-25
8.92339e-23
7.4062e-21
4.17124e-19
1.58667e-17
2.75275e-16
1.7016e-35
1.7612e-32
9.02151e-30
2.96731e-27
6.73438e-25
8.92242e-23
7.40577e-21
4.1711e-19
1.58665e-17
2.75283e-16
1.71116e-35
1.77063e-32
9.06766e-30
2.98172e-27
6.76328e-25
8.94862e-23
7.42247e-21
4.17873e-19
1.58904e-17
2.75577e-16
1.75815e-35
1.81818e-32
9.30253e-30
3.05528e-27
6.9106e-25
9.08244e-23
7.50814e-21
4.21798e-19
1.60129e-17
2.77055e-16
1.9379e-35
2.00161e-32
1.0222e-29
3.34754e-27
7.49073e-25
9.57993e-23
7.81571e-21
4.3555e-19
1.64236e-17
2.80924e-16
1.29723e-35
1.43685e-32
7.91951e-30
2.77927e-27
6.22199e-25
7.93736e-23
6.6335e-21
3.80718e-19
1.44649e-17
2.41555e-16
1.6312e-38
1.89211e-35
1.08331e-32
3.89042e-30
8.56775e-28
1.14674e-25
1.03851e-23
6.48454e-22
2.61948e-20
4.85722e-19
1.78263e-38
1.96169e-35
1.07657e-32
3.82094e-30
9.33756e-28
1.30811e-25
1.18602e-23
7.42107e-22
3.17038e-20
6.14743e-19
1.55136e-38
1.71408e-35
9.45935e-33
3.38235e-30
8.40235e-28
1.22108e-25
1.12699e-23
7.12928e-22
3.07375e-20
6.06014e-19
1.4913e-38
1.65014e-35
9.12373e-33
3.26989e-30
8.1574e-28
1.19646e-25
1.10932e-23
7.03765e-22
3.04118e-20
6.01679e-19
1.47886e-38
1.6368e-35
9.0537e-33
3.24644e-30
8.10593e-28
1.19128e-25
1.10561e-23
7.01845e-22
3.03433e-20
6.0075e-19
1.47719e-38
1.63509e-35
9.04466e-33
3.24337e-30
8.09893e-28
1.19044e-25
1.10491e-23
7.01438e-22
3.0327e-20
6.00468e-19
1.48545e-38
1.64388e-35
9.09122e-33
3.25921e-30
8.13411e-28
1.19406e-25
1.10754e-23
7.02816e-22
3.03768e-20
6.01203e-19
1.52212e-38
1.68321e-35
9.29933e-33
3.32971e-30
8.28722e-28
1.20886e-25
1.11773e-23
7.07873e-22
3.05482e-20
6.03311e-19
1.64484e-38
1.81616e-35
1.0013e-32
3.57475e-30
8.80668e-28
1.25227e-25
1.14389e-23
7.1916e-22
3.08481e-20
6.03048e-19
9.32346e-39
1.09538e-35
6.4737e-33
2.47025e-30
6.17298e-28
8.78899e-26
8.23034e-24
5.32688e-22
2.31094e-20
4.4335e-19
1.01635e-41
1.25019e-38
7.62937e-36
2.9359e-33
6.9651e-31
1.00957e-28
9.95712e-27
6.81238e-25
3.03474e-23
6.22879e-22
1.32641e-41
1.54744e-38
9.04665e-36
3.43785e-33
9.04352e-31
1.37067e-28
1.35193e-26
9.25843e-25
4.35893e-23
9.34916e-22
1.18827e-41
1.39176e-38
8.18074e-36
3.13134e-33
8.37121e-31
1.31588e-28
1.32083e-26
9.14246e-25
4.34285e-23
9.46972e-22
1.14799e-41
1.34653e-38
7.9297e-36
3.04218e-33
8.16698e-31
1.29563e-28
1.30641e-26
9.06831e-25
4.31736e-23
9.44689e-22
1.13867e-41
1.33596e-38
7.87064e-36
3.02103e-33
8.11726e-31
1.2903e-28
1.30232e-26
9.04553e-25
4.30858e-23
9.43438e-22
1.13818e-41
1.33547e-38
7.86812e-36
3.02021e-33
8.11563e-31
1.29026e-28
1.30238e-26
9.04637e-25
4.30915e-23
9.43631e-22
1.14298e-41
1.34081e-38
7.89768e-36
3.03076e-33
8.13982e-31
1.29252e-28
1.30386e-26
9.05315e-25
4.31112e-23
9.43696e-22
1.16581e-41
1.3665e-38
8.04063e-36
3.08179e-33
8.25491e-31
1.30299e-28
1.31054e-26
9.08289e-25
4.31923e-23
9.43649e-22
1.2224e-41
1.43019e-38
8.39633e-36
3.2085e-33
8.51052e-31
1.31175e-28
1.30482e-26
8.98505e-25
4.25058e-23
9.20416e-22
5.87451e-42
7.2639e-39
4.53929e-36
1.84488e-33
5.00369e-31
7.73872e-29
7.89147e-27
5.58906e-25
2.67924e-23
5.7231e-22
5.37845e-45
6.97658e-42
4.50208e-39
1.83776e-36
4.6402e-34
7.1837e-32
7.59871e-30
5.60242e-28
2.70377e-26
6.03192e-25
8.49079e-45
1.04444e-41
6.45517e-39
2.60114e-36
7.28063e-34
1.17813e-31
1.24564e-29
9.18808e-28
4.68573e-26
1.09216e-24
7.90792e-45
9.76529e-42
6.06785e-39
2.46259e-36
7.0042e-34
1.1754e-31
1.26462e-29
9.42743e-28
4.85058e-26
1.14944e-24
7.70225e-45
9.52488e-42
5.92943e-39
2.41187e-36
6.88855e-34
1.16665e-31
1.26089e-29
9.42624e-28
4.86093e-26
1.15593e-24
7.65703e-45
9.4721e-42
5.89907e-39
2.40073e-36
6.86277e-34
1.16461e-31
1.25994e-29
9.42504e-28
4.86271e-26
1.1572e-24
7.64946e-45
9.46284e-42
5.89348e-39
2.39856e-36
6.85706e-34
1.16384e-31
1.25922e-29
9.42018e-28
4.86041e-26
1.15674e-24
7.67341e-45
9.49065e-42
5.90941e-39
2.40441e-36
6.87038e-34
1.16475e-31
1.25947e-29
9.41871e-28
4.85836e-26
1.15584e-24
7.76387e-45
9.59412e-42
5.96749e-39
2.42506e-36
6.91179e-34
1.16519e-31
1.25648e-29
9.3807e-28
4.83276e-26
1.14774e-24
7.85114e-45
9.68216e-42
6.00782e-39
2.43406e-36
6.87236e-34
1.13314e-31
1.20975e-29
8.98167e-28
4.60755e-26
1.08593e-24
3.2405e-45
4.20151e-42
2.75866e-39
1.18269e-36
3.43011e-34
5.6894e-32
6.23563e-30
4.76773e-28
2.48719e-26
5.82735e-25
2.47739e-48
3.3755e-45
2.29202e-42
9.86553e-40
2.6327e-37
4.319e-35
4.85666e-33
3.8214e-31
1.97686e-29
4.74055e-28
4.75465e-48
6.14285e-45
3.99427e-42
1.69676e-39
5.01921e-37
8.60487e-35
9.66932e-33
7.60953e-31
4.15988e-29
1.04214e-27
4.64593e-48
6.02576e-45
3.93911e-42
1.68527e-39
5.06559e-37
9.00636e-35
1.02985e-32
8.19112e-31
4.5178e-29
1.15081e-27
4.57533e-48
5.94268e-45
3.89202e-42
1.66891e-39
5.03738e-37
9.03898e-35
1.0383e-32
8.28192e-31
4.5784e-29
1.1704e-27
4.55696e-48
5.92067e-45
3.87922e-42
1.66426e-39
5.02777e-37
9.03987e-35
1.03944e-32
8.29625e-31
4.5886e-29
1.17388e-27
4.55548e-48
5.9189e-45
3.87819e-42
1.66389e-39
5.02704e-37
9.04025e-35
1.03958e-32
8.29794e-31
4.58981e-29
1.17429e-27
4.55878e-48
5.92201e-45
3.87932e-42
1.66395e-39
5.02487e-37
9.02646e-35
1.03743e-32
8.27807e-31
4.57771e-29
1.17081e-27
4.57064e-48
5.93223e-45
3.88193e-42
1.66307e-39
5.01009e-37
8.95212e-35
1.02628e-32
8.17685e-31
4.51694e-29
1.15348e-27
4.43355e-48
5.742e-45
3.74845e-42
1.60119e-39
4.78065e-37
8.36848e-35
9.50896e-33
7.54199e-31
4.15306e-29
1.05384e-27
1.60577e-48
2.17914e-45
1.49914e-42
6.7503e-40
2.07678e-37
3.67239e-35
4.30137e-33
3.53063e-31
1.99073e-29
5.07732e-28
1.02901e-51
1.46819e-48
1.04522e-45
4.72423e-43
1.32616e-40
2.29317e-38
2.725e-36
2.27302e-34
1.25107e-32
3.19912e-31
2.40743e-51
3.25689e-48
2.2201e-45
9.90164e-43
3.08116e-40
5.56723e-38
6.60994e-36
5.51358e-34
3.20713e-32
8.56746e-31
2.47995e-51
3.36804e-48
2.30816e-45
1.0368e-42
3.27831e-40
6.14344e-38
7.4228e-36
6.25799e-34
3.67293e-32
9.97782e-31
2.47388e-51
3.36462e-48
2.31012e-45
1.04004e-42
3.30237e-40
6.2459e-38
7.58123e-36
6.4101e-34
3.77104e-32
1.02815e-30
2.47192e-51
3.36303e-48
2.30999e-45
1.04052e-42
3.30681e-40
6.26699e-38
7.61458e-36
6.44252e-34
3.7921e-32
1.03469e-30
2.47053e-51
3.36122e-48
2.30885e-45
1.04006e-42
3.30563e-40
6.26601e-38
7.61419e-36
6.44265e-34
3.79242e-32
1.03487e-30
2.46727e-51
3.35612e-48
2.30481e-45
1.03797e-42
3.29752e-40
6.24412e-38
7.58375e-36
6.41498e-34
3.77534e-32
1.02991e-30
2.4465e-51
3.32504e-48
2.28117e-45
1.02616e-42
3.25265e-40
6.12834e-38
7.42583e-36
6.27323e-34
3.6887e-32
1.0049e-30
2.27401e-51
3.08423e-48
2.11122e-45
9.47159e-43
2.97721e-40
5.50431e-38
6.61888e-36
5.57255e-34
3.27017e-32
8.86362e-31
7.37573e-52
1.04642e-48
7.53179e-46
3.55391e-43
1.1541e-40
2.168e-38
2.70427e-36
2.37462e-34
1.44032e-32
3.97366e-31
1.07815e-23
4.04437e-21
6.99651e-19
7.02736e-17
4.35853e-15
1.68821e-13
4.04485e-12
5.87216e-11
5.00832e-10
2.36294e-09
2.18417e-26
9.6665e-24
2.09335e-21
2.76219e-19
2.34022e-17
1.27879e-15
4.44055e-14
9.53715e-13
1.20746e-11
7.61304e-11
3.27203e-29
1.68319e-26
4.45329e-24
7.46477e-22
8.27876e-20
6.05791e-18
2.86241e-16
8.42578e-15
1.44508e-13
1.07269e-12
3.60832e-32
2.12343e-29
6.7008e-27
1.38299e-24
1.93354e-22
1.81368e-20
1.11e-18
4.24534e-17
9.41621e-16
8.04366e-15
2.91055e-35
1.93169e-32
7.12043e-30
1.76254e-27
3.01271e-25
3.50143e-23
2.67693e-21
1.28329e-19
3.5855e-18
3.49694e-17
1.69771e-38
1.25637e-35
5.32124e-33
1.54792e-30
3.1612e-28
4.44168e-26
4.13754e-24
2.42897e-22
8.37756e-21
9.3082e-20
7.00432e-42
5.73239e-39
2.75656e-36
9.28766e-34
2.23035e-31
3.72719e-29
4.16431e-27
2.9573e-25
1.23487e-23
1.55093e-22
1.9552e-45
1.7602e-42
9.53439e-40
3.68557e-37
1.03029e-34
2.02825e-32
2.70039e-30
2.30814e-28
1.15226e-26
1.63629e-25
3.35286e-49
3.31117e-46
2.01138e-43
8.87224e-41
2.87156e-38
6.64241e-36
1.05417e-33
1.08881e-31
6.54735e-30
1.10425e-28
2.70868e-53
2.93456e-50
1.99636e-47
1.00269e-44
3.75236e-42
1.02003e-39
1.93841e-37
2.4589e-35
1.86674e-33
4.49703e-32
2.1949e-27
9.28004e-25
1.84964e-22
2.271e-20
1.89426e-18
1.12407e-16
4.86624e-15
1.58467e-13
4.21584e-12
6.15663e-11
7.37914e-30
3.49105e-27
8.0308e-25
1.16871e-22
1.18161e-20
8.6589e-19
4.6982e-17
1.92643e-15
5.86955e-14
-7.28342e-12
1.89542e-32
1.00154e-29
2.6545e-27
4.5911e-25
5.703e-23
5.32171e-21
3.74185e-19
1.83047e-17
2.74267e-15
1.80427e-12
3.74513e-35
2.22174e-32
6.86586e-30
1.44717e-27
2.30922e-25
2.96064e-23
3.34365e-21
4.43823e-19
6.17551e-17
-1.02206e-14
5.70307e-38
3.85059e-35
1.42117e-32
3.7719e-30
7.93213e-28
1.36315e-25
1.92067e-23
2.13933e-21
5.45641e-20
-6.0409e-17
6.65649e-41
5.21591e-38
2.35561e-35
7.97809e-33
2.17267e-30
4.75565e-28
8.08536e-26
9.43237e-24
5.32901e-23
-2.95795e-19
5.84139e-44
5.4132e-41
3.02341e-38
1.28876e-35
4.37835e-33
1.1731e-30
2.40201e-28
3.43553e-26
1.80537e-24
-6.25135e-22
3.68232e-47
4.08333e-44
2.80336e-41
1.46486e-38
6.01135e-36
1.92482e-33
4.70957e-31
8.3176e-29
8.24739e-27
-4.54381e-25
1.50668e-50
2.00479e-47
1.66643e-44
1.04219e-41
5.06271e-39
1.9143e-36
5.56938e-34
1.20303e-31
1.68509e-29
5.67937e-28
3.04863e-54
4.85825e-51
4.81746e-48
3.55105e-45
2.02284e-42
9.00377e-40
3.13075e-37
8.37035e-35
1.58233e-32
1.43489e-30
6.64286e-32
6.39153e-29
2.92832e-26
8.38223e-24
1.4969e-21
1.50423e-19
9.98718e-18
4.28571e-16
1.10556e-14
-1.54645e-13
1.70675e-34
1.70834e-31
8.12815e-29
2.39329e-26
4.37438e-24
4.1722e-22
1.70277e-20
-8.28955e-19
-1.14528e-16
-1.1464e-14
3.13299e-37
2.9874e-34
1.26465e-31
2.86277e-29
2.00862e-27
-9.79229e-25
-1.2351e-21
-2.28663e-18
-2.2914e-15
-8.9616e-13
2.49783e-40
-1.99561e-38
-2.81305e-34
-2.86054e-31
-2.00469e-28
-7.67005e-26
8.20126e-23
1.64226e-19
1.11729e-16
3.4945e-14
-8.70855e-43
-2.42548e-39
-2.09387e-36
1.11731e-34
2.1064e-30
2.26169e-27
7.88984e-25
-5.48883e-22
-7.15317e-19
-3.31416e-16
-4.56083e-45
-1.06782e-41
-1.0012e-38
-3.64761e-36
1.35086e-33
1.82125e-30
1.40314e-28
-5.96115e-25
-1.28234e-22
3.35168e-19
-1.08152e-47
-2.63107e-44
-2.8524e-41
-1.81896e-38
-8.83727e-36
-5.82104e-33
-4.94527e-30
-2.83195e-27
-5.19596e-25
3.6956e-22
-1.49948e-50
-3.90662e-47
-4.7212e-44
-3.57102e-41
-2.12122e-38
-1.34921e-35
-9.6388e-33
-5.56211e-30
-1.7353e-27
7.00615e-26
-1.1804e-53
-3.32781e-50
-4.42333e-47
-3.69312e-44
-2.2898e-41
-1.31175e-38
-8.28703e-36
-5.00757e-33
-2.07193e-30
-2.7181e-28
-4.17428e-57
-1.27945e-53
-1.85349e-50
-1.66945e-47
-1.06108e-44
-5.52561e-42
-2.99478e-39
-1.82581e-36
-9.62278e-34
-2.60361e-31
2.96171e-35
3.2266e-32
1.78645e-29
6.49832e-27
1.51887e-24
2.01627e-22
1.78358e-20
1.13204e-18
5.645e-17
2.3811e-15
4.18874e-38
4.74579e-35
2.71639e-32
1.02379e-29
2.53002e-27
3.42877e-25
2.38979e-23
2.57232e-23
-4.4706e-20
9.81879e-18
4.66766e-41
5.47947e-38
3.17948e-35
1.16453e-32
2.59428e-30
2.56063e-28
9.50729e-26
1.2451e-21
4.25975e-18
3.51857e-15
4.15297e-44
5.45223e-41
6.04877e-38
1.32967e-34
2.99154e-31
4.15883e-28
1.89228e-25
-2.84646e-22
-4.1585e-19
-1.95916e-16
-1.05126e-46
-1.14146e-42
-5.27296e-39
-1.47957e-35
-2.68551e-32
-3.08192e-29
-1.99188e-26
-4.16102e-24
2.92063e-21
2.29076e-18
5.07825e-49
7.02968e-45
3.5052e-41
9.73396e-38
1.71481e-34
1.97979e-31
1.46404e-28
6.30496e-26
1.00343e-23
-4.44419e-21
-1.38145e-51
-4.65173e-48
-1.16321e-44
-3.31962e-41
-7.39548e-38
-1.06364e-34
-9.7788e-32
-5.94564e-29
-2.51038e-26
-5.97876e-24
-4.67321e-54
-1.87113e-50
-4.19635e-47
-7.6645e-44
-1.20534e-40
-1.5062e-37
-1.40144e-34
-9.31303e-32
-4.16537e-29
-1.01432e-26
-6.87804e-57
-2.722e-53
-5.17522e-50
-6.64065e-47
-7.11451e-44
-7.17068e-41
-6.56823e-38
-4.85479e-35
-2.53048e-32
-7.21042e-30
-5.16155e-60
-2.24186e-56
-4.48112e-53
-5.45828e-50
-4.60685e-47
-3.04529e-44
-1.86482e-41
-1.1717e-38
-6.58545e-36
-2.37688e-33
2.04818e-38
2.39366e-35
1.42111e-32
5.52854e-30
1.42398e-27
2.12331e-25
2.17647e-23
1.72035e-21
1.1064e-19
3.62856e-18
2.33139e-41
2.82158e-38
1.72859e-35
6.91354e-33
1.81862e-30
2.66264e-28
2.2546e-26
1.35906e-24
1.14258e-22
1.16983e-20
1.94368e-44
2.41532e-41
1.48456e-38
5.71084e-36
1.30306e-33
1.34821e-31
-2.14292e-30
6.88822e-26
6.38391e-22
-1.69685e-19
1.21848e-47
1.53468e-44
1.35908e-41
2.93661e-38
7.74433e-35
1.3018e-31
9.82073e-29
-9.72974e-27
6.07268e-24
9.32679e-20