/*--------------------------------*- C++ -*----------------------------------*\
  =========                 |
  \\      /  F ield         | OpenFOAM: The Open Source CFD Toolbox
   \\    /   O peration     | Website:  https://openfoam.org
    \\  /    A nd           | Version:  dev
     \\/     M anipulation  |
\*---------------------------------------------------------------------------*/
FoamFile
{
    version     2.0;
    format      ascii;
    class       volScalarField;
    location    "0.02";
    object      phi;
}
// * * * * * * * * * * * * * * * * * * * * * * * * * * * * * * * * * * * * * //

dimensions      [1 2 -3 0 0 -1 0];

internalField   nonuniform List<scalar> 
9000
(
49.9949
49.9949
49.9949
49.995
49.9951
49.9952
49.9953
49.9954
49.9954
49.9955
49.9951
49.9951
49.9951
49.9952
49.9954
49.9955
49.9956
49.9957
49.9958
49.9959
49.9955
49.9955
49.9956
49.9957
49.9959
49.9961
49.9963
49.9965
49.9966
49.9968
49.9961
49.9961
49.9963
49.9965
49.9967
49.997
49.9974
49.9977
49.998
49.9982
49.9969
49.997
49.9972
49.9976
49.9979
49.9984
49.999
49.9995
50.0001
50.0005
49.9981
49.9982
49.9985
49.999
49.9996
50.0003
50.0012
50.0022
50.0031
50.004
49.9994
49.9997
50.0001
50.0008
50.0018
50.0029
50.0043
50.0059
50.0076
50.0092
50.0011
50.0014
50.0021
50.0031
50.0045
50.0063
50.0086
50.0112
50.0141
50.0171
50.0031
50.0036
50.0045
50.006
50.008
50.0108
50.0143
50.0186
50.0236
50.029
50.0054
50.006
50.0073
50.0093
50.0123
50.0163
50.0217
50.0285
50.0371
50.0471
129.986
129.986
129.986
129.986
129.986
129.986
129.986
129.986
129.986
129.986
129.986
129.986
129.986
129.986
129.987
129.987
129.987
129.987
129.987
129.987
129.987
129.987
129.987
129.987
129.988
129.988
129.988
129.988
129.988
129.988
129.988
129.988
129.988
129.989
129.989
129.989
129.99
129.99
129.99
129.99
129.99
129.99
129.99
129.991
129.991
129.992
129.992
129.993
129.993
129.994
129.992
129.992
129.993
129.993
129.994
129.995
129.996
129.996
129.997
129.998
129.995
129.995
129.996
129.996
129.997
129.998
130
130.001
130.002
130.003
129.998
129.998
129.999
130
130.001
130.003
130.005
130.007
130.009
130.011
130.001
130.002
130.003
130.004
130.006
130.009
130.011
130.014
130.017
130.02
130.005
130.006
130.007
130.009
130.012
130.015
130.019
130.023
130.027
130.031
189.975
189.975
189.975
189.975
189.975
189.975
189.975
189.975
189.975
189.975
189.975
189.975
189.975
189.975
189.976
189.976
189.976
189.976
189.976
189.975
189.976
189.976
189.976
189.976
189.976
189.977
189.977
189.977
189.977
189.977
189.977
189.977
189.977
189.978
189.978
189.978
189.978
189.978
189.978
189.978
189.979
189.979
189.979
189.979
189.98
189.98
189.98
189.98
189.98
189.98
189.981
189.981
189.981
189.982
189.982
189.982
189.983
189.983
189.983
189.983
189.983
189.983
189.984
189.984
189.985
189.985
189.986
189.986
189.987
189.987
189.986
189.986
189.987
189.987
189.988
189.989
189.99
189.99
189.991
189.991
189.989
189.99
189.99
189.991
189.992
189.993
189.994
189.995
189.996
189.997
189.993
189.993
189.994
189.995
189.996
189.997
189.999
190
190.002
190.003
229.963
229.963
229.963
229.963
229.963
229.963
229.963
229.963
229.963
229.963
229.963
229.963
229.963
229.963
229.963
229.963
229.963
229.963
229.963
229.963
229.964
229.964
229.964
229.964
229.964
229.964
229.964
229.964
229.964
229.964
229.965
229.965
229.965
229.965
229.965
229.965
229.965
229.965
229.965
229.965
229.966
229.966
229.966
229.966
229.966
229.966
229.966
229.966
229.966
229.966
229.967
229.967
229.967
229.967
229.967
229.967
229.967
229.968
229.968
229.967
229.968
229.968
229.969
229.969
229.969
229.969
229.969
229.969
229.969
229.969
229.97
229.97
229.97
229.971
229.971
229.971
229.971
229.972
229.972
229.972
229.972
229.972
229.973
229.973
229.973
229.973
229.974
229.974
229.974
229.974
229.975
229.975
229.975
229.975
229.976
229.976
229.976
229.977
229.977
229.977
249.952
249.952
249.952
249.952
249.952
249.952
249.952
249.952
249.952
249.952
249.952
249.952
249.952
249.952
249.952
249.952
249.952
249.952
249.952
249.952
249.952
249.952
249.952
249.952
249.952
249.952
249.952
249.952
249.952
249.952
249.952
249.952
249.952
249.952
249.952
249.952
249.952
249.952
249.952
249.952
249.953
249.953
249.953
249.953
249.953
249.953
249.953
249.953
249.953
249.953
249.953
249.953
249.953
249.953
249.953
249.953
249.953
249.953
249.953
249.953
249.954
249.954
249.954
249.954
249.954
249.954
249.954
249.954
249.954
249.954
249.954
249.954
249.954
249.954
249.954
249.955
249.955
249.955
249.955
249.955
249.955
249.955
249.955
249.955
249.955
249.955
249.955
249.955
249.955
249.955
249.956
249.956
249.956
249.956
249.956
249.956
249.956
249.956
249.956
249.956
249.944
249.944
249.944
249.944
249.944
249.944
249.944
249.944
249.944
249.944
249.944
249.944
249.944
249.944
249.944
249.944
249.944
249.944
249.944
249.944
249.944
249.944
249.944
249.944
249.944
249.944
249.944
249.944
249.944
249.944
249.943
249.943
249.943
249.943
249.943
249.943
249.943
249.943
249.943
249.943
249.943
249.943
249.943
249.943
249.943
249.943
249.943
249.943
249.943
249.943
249.942
249.942
249.942
249.942
249.942
249.942
249.942
249.942
249.942
249.942
249.942
249.942
249.942
249.942
249.942
249.942
249.942
249.942
249.942
249.942
249.941
249.941
249.941
249.941
249.941
249.941
249.941
249.941
249.941
249.941
249.941
249.941
249.941
249.941
249.941
249.94
249.94
249.94
249.94
249.94
249.94
249.94
249.94
249.94
249.94
249.94
249.939
249.939
249.939
249.939
229.941
229.941
229.941
229.941
229.941
229.941
229.941
229.941
229.941
229.941
229.941
229.941
229.941
229.941
229.941
229.941
229.941
229.941
229.941
229.941
229.94
229.94
229.94
229.94
229.94
229.94
229.94
229.94
229.94
229.94
229.939
229.939
229.939
229.939
229.939
229.939
229.939
229.939
229.939
229.94
229.938
229.938
229.938
229.938
229.938
229.938
229.938
229.938
229.938
229.938
229.937
229.937
229.937
229.937
229.937
229.937
229.937
229.937
229.937
229.937
229.936
229.936
229.935
229.935
229.935
229.935
229.935
229.935
229.935
229.935
229.934
229.934
229.934
229.933
229.933
229.933
229.933
229.932
229.932
229.932
229.932
229.932
229.932
229.931
229.931
229.931
229.93
229.93
229.93
229.93
229.929
229.929
229.929
229.929
229.928
229.928
229.928
229.927
229.927
229.927
189.946
189.946
189.946
189.946
189.946
189.946
189.946
189.946
189.946
189.946
189.945
189.945
189.945
189.945
189.945
189.945
189.945
189.945
189.945
189.945
189.945
189.945
189.945
189.944
189.944
189.944
189.944
189.944
189.944
189.944
189.943
189.943
189.943
189.943
189.943
189.943
189.943
189.943
189.943
189.943
189.942
189.942
189.942
189.941
189.941
189.941
189.941
189.94
189.94
189.94
189.94
189.94
189.94
189.939
189.939
189.938
189.938
189.938
189.937
189.937
189.937
189.937
189.937
189.937
189.936
189.936
189.935
189.934
189.934
189.934
189.935
189.934
189.934
189.933
189.933
189.932
189.931
189.93
189.93
189.929
189.931
189.931
189.931
189.93
189.929
189.928
189.927
189.926
189.925
189.924
189.928
189.928
189.927
189.926
189.925
189.923
189.922
189.92
189.919
189.918
129.96
129.96
129.96
129.96
129.96
129.96
129.959
129.959
129.959
129.959
129.96
129.96
129.959
129.959
129.959
129.959
129.959
129.959
129.959
129.959
129.959
129.959
129.959
129.958
129.958
129.958
129.958
129.958
129.957
129.957
129.958
129.957
129.957
129.957
129.957
129.956
129.956
129.956
129.955
129.955
129.956
129.956
129.955
129.955
129.955
129.954
129.954
129.953
129.953
129.952
129.954
129.953
129.953
129.953
129.952
129.951
129.95
129.949
129.949
129.948
129.951
129.951
129.95
129.949
129.949
129.947
129.946
129.945
129.944
129.942
129.948
129.948
129.947
129.946
129.944
129.943
129.941
129.939
129.937
129.935
129.944
129.944
129.943
129.941
129.94
129.937
129.935
129.932
129.929
129.926
129.94
129.94
129.938
129.936
129.934
129.931
129.927
129.923
129.919
129.915
49.9843
49.9843
49.9842
49.9841
49.984
49.9839
49.9838
49.9838
49.9837
49.9837
49.9841
49.9841
49.984
49.9839
49.9838
49.9837
49.9835
49.9834
49.9833
49.9833
49.9837
49.9836
49.9835
49.9834
49.9833
49.9831
49.9829
49.9827
49.9825
49.9824
49.9831
49.983
49.9829
49.9827
49.9824
49.9821
49.9818
49.9815
49.9811
49.9809
49.9822
49.9821
49.9819
49.9816
49.9812
49.9807
49.9802
49.9796
49.9791
49.9786
49.9811
49.9809
49.9806
49.9802
49.9796
49.9788
49.9779
49.977
49.976
49.9751
49.9797
49.9795
49.979
49.9783
49.9774
49.9762
49.9748
49.9732
49.9716
49.9699
49.978
49.9777
49.977
49.976
49.9746
49.9728
49.9706
49.9679
49.965
49.9621
49.9761
49.9756
49.9746
49.9732
49.9711
49.9684
49.9649
49.9606
49.9556
49.9501
49.9738
49.9732
49.9718
49.9698
49.9668
49.9628
49.9575
49.9506
49.9421
49.932
50.028
50.0304
50.0356
50.0441
50.057
50.076
50.1035
50.1433
50.2011
50.2854
50.0328
50.0354
50.0409
50.0499
50.0635
50.0832
50.1117
50.1527
50.2119
50.2977
50.0328
50.0353
50.0407
50.0496
50.0631
50.0827
50.1111
50.1519
50.2109
50.2965
50.0328
50.0355
50.041
50.05
50.0635
50.0833
50.1118
50.1528
50.212
50.2978
50.0311
50.0335
50.0388
50.0477
50.061
50.0806
50.1089
50.1496
50.2084
50.2938
50.0271
50.0298
50.0354
50.0444
50.058
50.0778
50.1064
50.1474
50.2067
50.2927
50.0077
50.0102
50.0156
50.0245
50.038
50.0576
50.086
50.1268
50.1857
50.2713
49.9344
49.9369
49.9422
49.9509
49.9641
49.9834
50.0114
50.0518
50.1103
50.1955
49.67
49.6715
49.6751
49.6813
49.6912
49.7064
49.7296
49.7644
49.8167
49.8949
48.8559
48.8493
48.8365
48.8176
48.7935
48.7654
48.7351
48.7057
48.6819
48.6706
130.046
130.048
130.053
130.06
130.07
130.082
130.098
130.116
130.136
130.157
130.054
130.056
130.06
130.068
130.078
130.09
130.106
130.125
130.145
130.167
130.056
130.059
130.064
130.071
130.081
130.094
130.11
130.129
130.15
130.172
130.054
130.056
130.06
130.068
130.078
130.091
130.106
130.125
130.145
130.167
130.053
130.056
130.062
130.069
130.08
130.093
130.109
130.129
130.15
130.173
130.036
130.038
130.042
130.049
130.059
130.072
130.088
130.106
130.126
130.148
129.983
129.986
129.991
129.998
130.008
130.021
130.037
130.056
130.077
130.099
129.769
129.771
129.776
129.782
129.791
129.803
129.818
129.835
129.854
129.874
129.01
129.01
129.01
129.01
129.011
129.012
129.014
129.017
129.02
129.022
126.744
126.724
126.687
126.63
126.555
126.461
126.349
126.216
126.061
125.879
190.026
190.027
190.029
190.032
190.036
190.041
190.046
190.051
190.057
190.062
190.04
190.041
190.044
190.047
190.052
190.057
190.063
190.07
190.076
190.082
190.037
190.038
190.04
190.043
190.047
190.052
190.058
190.064
190.07
190.075
190.039
190.041
190.043
190.047
190.051
190.057
190.063
190.069
190.076
190.081
190.027
190.028
190.029
190.032
190.036
190.041
190.046
190.052
190.057
190.061
190.014
190.016
190.019
190.023
190.027
190.033
190.039
190.046
190.052
190.058
189.923
189.924
189.927
189.93
189.934
189.939
189.945
189.95
189.956
189.961
189.594
189.595
189.597
189.599
189.602
189.606
189.61
189.614
189.617
189.62
188.415
188.412
188.407
188.399
188.389
188.376
188.36
188.342
188.32
188.295
185.074
185.048
184.994
184.914
184.807
184.672
184.51
184.319
184.096
183.836
229.998
229.999
230
230.001
230.002
230.004
230.006
230.008
230.009
230.011
230
230
230
230.001
230.002
230.004
230.005
230.006
230.007
230.008
230.005
230.006
230.007
230.008
230.01
230.012
230.014
230.015
230.017
230.018
229.999
229.999
229.999
230
230.001
230.003
230.004
230.005
230.006
230.007
230.002
230.003
230.005
230.006
230.008
230.01
230.013
230.015
230.017
230.019
229.963
229.962
229.963
229.963
229.965
229.966
229.967
229.968
229.969
229.969
229.862
229.863
229.864
229.865
229.866
229.868
229.87
229.871
229.873
229.874
229.443
229.442
229.442
229.442
229.441
229.441
229.44
229.438
229.436
229.434
227.979
227.975
227.968
227.956
227.94
227.92
227.896
227.868
227.837
227.802
223.932
223.9
223.835
223.739
223.609
223.446
223.249
223.017
222.747
222.437
249.96
249.96
249.96
249.96
249.96
249.96
249.961
249.961
249.961
249.96
249.97
249.97
249.971
249.971
249.972
249.972
249.973
249.973
249.974
249.975
249.963
249.963
249.963
249.963
249.963
249.963
249.963
249.963
249.963
249.963
249.968
249.968
249.969
249.969
249.97
249.97
249.971
249.972
249.972
249.973
249.948
249.947
249.947
249.947
249.947
249.946
249.946
249.946
249.945
249.944
249.934
249.934
249.935
249.936
249.936
249.937
249.938
249.939
249.94
249.941
249.805
249.804
249.804
249.805
249.805
249.805
249.805
249.805
249.805
249.804
249.347
249.347
249.346
249.345
249.343
249.341
249.339
249.336
249.333
249.33
247.719
247.714
247.704
247.689
247.67
247.646
247.618
247.585
247.548
247.508
243.355
243.32
243.25
243.144
243.002
242.823
242.606
242.349
242.053
241.715
249.936
249.936
249.936
249.936
249.935
249.935
249.935
249.935
249.935
249.935
249.926
249.925
249.925
249.924
249.924
249.923
249.923
249.922
249.921
249.921
249.932
249.932
249.932
249.932
249.932
249.932
249.931
249.931
249.931
249.931
249.923
249.923
249.922
249.922
249.921
249.921
249.92
249.92
249.919
249.918
249.929
249.93
249.93
249.93
249.93
249.93
249.931
249.931
249.931
249.932
249.883
249.882
249.881
249.881
249.88
249.88
249.879
249.878
249.877
249.877
249.773
249.773
249.773
249.773
249.772
249.772
249.772
249.771
249.771
249.771
249.308
249.307
249.306
249.304
249.302
249.299
249.295
249.292
249.288
249.284
247.695
247.69
247.681
247.666
247.647
247.623
247.594
247.562
247.526
247.486
243.317
243.282
243.211
243.104
242.961
242.781
242.563
242.305
242.008
241.669
229.905
229.905
229.904
229.903
229.901
229.9
229.898
229.896
229.895
229.893
229.905
229.905
229.905
229.904
229.902
229.901
229.899
229.898
229.896
229.896
229.897
229.896
229.896
229.894
229.893
229.891
229.889
229.887
229.886
229.885
229.902
229.902
229.902
229.901
229.899
229.898
229.896
229.895
229.894
229.893
229.883
229.882
229.88
229.879
229.877
229.875
229.873
229.871
229.869
229.868
229.872
229.872
229.872
229.871
229.87
229.868
229.867
229.865
229.864
229.864
229.754
229.754
229.753
229.752
229.75
229.748
229.746
229.744
229.743
229.741
229.342
229.341
229.339
229.337
229.334
229.33
229.326
229.321
229.317
229.313
227.867
227.861
227.851
227.837
227.817
227.794
227.766
227.734
227.699
227.662
223.852
223.819
223.754
223.655
223.523
223.357
223.157
222.922
222.65
222.338
189.896
189.895
189.893
189.89
189.886
189.881
189.875
189.869
189.864
189.859
189.879
189.878
189.876
189.872
189.868
189.862
189.857
189.85
189.844
189.839
189.884
189.883
189.881
189.878
189.873
189.868
189.862
189.856
189.85
189.845
189.877
189.875
189.873
189.869
189.865
189.86
189.854
189.848
189.842
189.836
189.883
189.882
189.88
189.877
189.873
189.867
189.862
189.856
189.85
189.845
189.847
189.846
189.843
189.84
189.836
189.83
189.824
189.818
189.812
189.806
189.77
189.769
189.767
189.763
189.759
189.754
189.748
189.742
189.736
189.73
189.436
189.434
189.431
189.427
189.421
189.414
189.406
189.397
189.389
189.381
188.269
188.264
188.255
188.241
188.222
188.199
188.172
188.142
188.109
188.074
184.935
184.906
184.848
184.762
184.646
184.502
184.328
184.124
183.889
183.618
129.899
129.897
129.892
129.885
129.875
129.863
129.848
129.83
129.81
129.788
129.894
129.891
129.887
129.879
129.869
129.856
129.84
129.822
129.801
129.779
129.888
129.886
129.881
129.874
129.863
129.85
129.834
129.816
129.795
129.773
129.892
129.889
129.885
129.877
129.867
129.854
129.838
129.82
129.799
129.777
129.88
129.878
129.873
129.865
129.855
129.842
129.826
129.808
129.787
129.765
129.877
129.874
129.87
129.862
129.852
129.839
129.823
129.804
129.784
129.762
129.815
129.813
129.808
129.801
129.791
129.777
129.762
129.743
129.722
129.7
129.605
129.602
129.597
129.589
129.578
129.564
129.547
129.526
129.504
129.48
128.841
128.836
128.826
128.811
128.791
128.767
128.737
128.702
128.662
128.62
126.603
126.58
126.533
126.463
126.368
126.25
126.107
125.939
125.744
125.518
49.9517
49.9493
49.944
49.9354
49.9225
49.9034
49.8759
49.836
49.7782
49.6937
49.9454
49.9428
49.9374
49.9285
49.9151
49.8954
49.867
49.8261
49.7671
49.6813
49.9468
49.9442
49.9387
49.9297
49.9162
49.8965
49.8681
49.8272
49.7681
49.6824
49.9447
49.9421
49.9367
49.9278
49.9143
49.8947
49.8662
49.8253
49.7663
49.6805
49.9469
49.9442
49.9387
49.9297
49.9161
49.8964
49.868
49.8271
49.7681
49.6824
49.9379
49.9354
49.9301
49.9212
49.9078
49.8881
49.8597
49.8188
49.7597
49.674
49.9215
49.9189
49.9134
49.9044
49.8909
49.8712
49.8427
49.8018
49.7427
49.657
49.8471
49.8444
49.8388
49.8296
49.8158
49.7957
49.7669
49.7254
49.6658
49.5794
49.5855
49.582
49.5747
49.5631
49.5461
49.5221
49.4885
49.4418
49.3762
49.2832
48.7778
48.7664
48.7432
48.7073
48.6573
48.5912
48.5057
48.3965
48.2567
48.0762
47.7886
47.7266
47.5995
47.4005
47.1196
46.7456
46.2696
45.6969
45.0763
44.5771
47.6718
47.6014
47.456
47.2253
46.8929
46.4346
45.8162
44.9884
43.8756
42.3421
47.5617
47.4817
47.3153
47.0477
46.6541
46.0952
45.3088
44.1939
42.579
40.1546
47.4643
47.3756
47.1899
46.8891
46.4421
45.7991
44.8819
43.5675
41.6603
38.8498
47.3849
47.2899
47.0905
46.7667
46.2848
45.5911
44.6039
43.1991
41.1915
38.3097
47.3265
47.2281
47.0218
46.6875
46.1914
45.4813
44.4789
43.0689
41.0845
38.2894
47.2883
47.1895
46.9824
46.6482
46.1553
45.4554
44.4773
43.1173
41.226
38.591
47.2668
47.1693
46.9655
46.6383
46.1593
45.4853
44.5536
43.273
41.5111
39.0736
47.2567
47.1611
46.9618
46.6434
46.1807
45.5357
44.6541
43.4585
41.837
39.6221
47.253
47.1585
46.9622
46.6498
46.1978
45.5719
44.7243
43.5894
42.0802
40.0862
124.485
124.391
124.204
123.93
123.579
123.182
122.807
122.61
122.932
124.542
124.238
124.13
123.912
123.583
123.142
122.592
121.951
121.25
120.544
119.857
124.008
123.882
123.625
123.226
122.666
121.917
120.934
119.636
117.862
115.253
123.808
123.666
123.372
122.909
122.243
121.326
120.077
118.367
115.987
112.59
123.651
123.497
123.178
122.673
121.943
120.932
119.55
117.67
115.105
111.597
123.541
123.383
123.055
122.535
121.788
120.76
119.371
117.513
115.039
111.764
123.477
123.321
122.997
122.488
121.763
120.779
119.476
117.772
115.56
112.703
123.449
123.298
122.988
122.504
121.826
120.924
119.761
118.287
116.442
114.134
123.441
123.297
123.001
122.546
121.918
121.104
120.088
118.863
117.428
115.775
123.441
123.3
123.015
122.578
121.982
121.225
120.309
119.264
118.164
117.183
182.846
182.774
182.635
182.436
182.197
181.955
181.789
181.854
182.472
184.331
182.618
182.536
182.374
182.135
181.828
181.468
181.088
180.743
180.516
180.481
182.418
182.324
182.132
181.84
181.439
180.917
180.254
179.406
178.274
176.605
182.261
182.155
181.939
181.599
181.119
180.464
179.582
178.387
176.728
174.355
182.156
182.045
181.815
181.452
180.933
180.219
179.248
177.93
176.125
173.643
182.106
181.996
181.769
181.412
180.903
180.208
179.276
178.031
176.363
174.126
182.101
182
181.79
181.464
181.008
180.401
179.611
178.59
177.267
175.532
182.127
182.037
181.853
181.574
181.197
180.719
180.137
179.445
178.627
177.627
182.16
182.082
181.924
181.691
181.393
181.046
180.682
180.35
180.121
180.067
182.182
182.11
181.967
181.764
181.515
181.255
181.039
180.971
181.237
182.184
222.305
222.254
222.155
222.009
221.823
221.61
221.398
221.244
221.263
221.684
222.164
222.111
222.005
221.846
221.636
221.378
221.083
220.774
220.489
220.282
222.072
222.016
221.903
221.729
221.489
221.173
220.77
220.265
219.623
218.771
222.033
221.978
221.863
221.683
221.426
221.073
220.597
219.957
219.089
217.899
222.049
221.998
221.893
221.726
221.483
221.144
220.675
220.025
219.121
217.86
222.112
222.073
221.989
221.856
221.664
221.396
221.024
220.501
219.755
218.673
222.209
222.186
222.134
222.055
221.947
221.803
221.613
221.35
220.961
220.338
222.317
222.311
222.297
222.283
222.278
222.295
222.35
222.459
222.619
222.77
222.408
222.418
222.438
222.483
222.576
222.75
223.06
223.581
224.412
225.641
222.46
222.477
222.517
222.598
222.752
223.028
223.511
224.34
225.749
228.157
242.201
242.157
242.07
241.935
241.745
241.488
241.148
240.696
240.074
239.151
242.131
242.09
242.008
241.878
241.695
241.446
241.12
240.705
240.193
239.605
242.123
242.088
242.015
241.899
241.733
241.506
241.209
240.836
240.399
239.944
242.176
242.149
242.093
242.002
241.868
241.679
241.423
241.086
240.666
240.181
242.284
242.27
242.24
242.188
242.108
241.988
241.812
241.557
241.191
240.679
242.434
242.437
242.441
242.445
242.444
242.431
242.391
242.298
242.101
241.714
242.605
242.629
242.675
242.747
242.849
242.982
243.146
243.325
243.475
243.488
242.771
242.817
242.908
243.055
243.272
243.581
244.005
244.567
245.268
246.041
242.903
242.966
243.096
243.309
243.633
244.11
244.802
245.793
247.188
249.074
242.975
243.047
243.198
243.451
243.841
244.426
245.301
246.615
248.617
251.748
242.185
242.141
242.054
241.919
241.729
241.473
241.133
240.683
240.065
239.148
242.115
242.074
241.992
241.863
241.679
241.431
241.105
240.69
240.18
239.594
242.109
242.073
242
241.885
241.718
241.491
241.194
240.821
240.382
239.926
242.163
242.136
242.08
241.988
241.854
241.665
241.407
241.069
240.647
240.159
242.272
242.258
242.227
242.175
242.095
241.974
241.797
241.54
241.172
240.657
242.422
242.425
242.429
242.432
242.431
242.417
242.376
242.281
242.083
241.692
242.594
242.618
242.664
242.735
242.836
242.969
243.132
243.31
243.458
243.469
242.761
242.806
242.897
243.043
243.26
243.568
243.992
244.553
245.253
246.023
242.893
242.956
243.085
243.298
243.622
244.098
244.789
245.78
247.174
249.059
242.965
243.036
243.188
243.44
243.829
244.415
245.289
246.602
248.604
251.735
222.257
222.205
222.106
221.96
221.775
221.562
221.352
221.201
221.228
221.668
222.121
222.067
221.961
221.802
221.592
221.334
221.04
220.732
220.45
220.247
222.032
221.976
221.863
221.689
221.448
221.131
220.727
220.22
219.576
218.719
221.996
221.94
221.826
221.645
221.387
221.033
220.555
219.911
219.038
217.84
222.014
221.964
221.858
221.69
221.446
221.104
220.632
219.979
219.07
217.8
222.08
222.041
221.957
221.823
221.629
221.359
220.983
220.456
219.705
218.617
222.18
222.155
222.103
222.024
221.913
221.768
221.575
221.309
220.915
220.287
222.289
222.282
222.268
222.253
222.246
222.261
222.314
222.421
222.577
222.725
222.381
222.39
222.409
222.454
222.545
222.718
223.026
223.546
224.375
225.602
222.433
222.449
222.489
222.569
222.722
222.997
223.478
224.306
225.715
228.124
182.779
182.706
182.566
182.367
182.127
181.884
181.717
181.784
182.411
184.288
182.556
182.474
182.312
182.072
181.764
181.403
181.022
180.677
180.452
180.42
182.363
182.268
182.076
181.783
181.381
180.857
180.192
179.341
178.204
176.527
182.211
182.105
181.887
181.547
181.065
180.408
179.523
178.323
176.657
174.274
182.11
181.999
181.768
181.404
180.883
180.166
179.192
177.868
176.058
173.567
182.064
181.953
181.726
181.367
180.856
180.159
179.223
177.973
176.3
174.057
182.062
181.96
181.75
181.423
180.965
180.355
179.561
178.537
177.21
175.47
182.09
182
181.816
181.535
181.157
180.676
180.091
179.397
178.575
177.571
182.125
182.046
181.887
181.654
181.354
181.006
180.639
180.305
180.075
180.018
182.148
182.075
181.931
181.727
181.477
181.215
180.997
180.928
181.194
182.142
124.418
124.322
124.134
123.857
123.502
123.101
122.721
122.52
122.842
124.46
124.179
124.07
123.851
123.52
123.076
122.523
121.878
121.174
120.465
119.776
123.956
123.83
123.571
123.171
122.608
121.857
120.87
119.568
117.789
115.174
123.762
123.619
123.325
122.86
122.193
121.273
120.021
118.307
115.921
112.518
123.609
123.455
123.136
122.629
121.898
120.884
119.5
117.616
115.046
111.534
123.504
123.345
123.017
122.496
121.747
120.716
119.325
117.464
114.987
111.709
123.444
123.287
122.962
122.452
121.726
120.74
119.434
117.728
115.513
112.654
123.418
123.266
122.955
122.471
121.791
120.888
119.722
118.247
116.399
114.089
123.412
123.267
122.971
122.515
121.886
121.069
120.052
118.826
117.389
115.735
123.412
123.271
122.984
122.547
121.95
121.191
120.275
119.229
118.128
117.147
47.7568
47.6938
47.5647
47.3624
47.0769
46.6966
46.2127
45.6305
44.9999
44.493
47.6443
47.5732
47.4265
47.1937
46.8584
46.3963
45.7732
44.9403
43.823
42.2871
47.5381
47.4577
47.2904
47.0214
46.626
46.0647
45.2755
44.1577
42.5406
40.1156
47.4439
47.355
47.1687
46.867
46.4188
45.7743
44.8555
43.5395
41.6312
38.8208
47.3673
47.2721
47.0722
46.7478
46.2649
45.5702
44.5818
43.176
41.1679
38.2868
47.3111
47.2126
47.0059
46.671
46.1741
45.4631
44.4597
43.0489
41.0641
38.2695
47.2747
47.1756
46.9683
46.6336
46.1401
45.4395
44.4605
43.0996
41.2078
38.5725
47.2544
47.1567
46.9527
46.6251
46.1455
45.4709
44.5385
43.2571
41.4945
39.0561
47.2451
47.1492
46.9497
46.631
46.1678
45.5222
44.64
43.4437
41.8215
39.6056
47.2417
47.1469
46.9504
46.6376
46.1852
45.5588
44.7105
43.575
42.0654
40.0708
49.9955
49.9954
49.9954
49.9954
49.9953
49.9953
49.9952
49.9951
49.995
49.9949
49.9959
49.9959
49.9959
49.9958
49.9958
49.9957
49.9956
49.9955
49.9954
49.9953
49.9968
49.9968
49.9968
49.9968
49.9967
49.9967
49.9966
49.9965
49.9963
49.9962
49.9984
49.9984
49.9984
49.9984
49.9984
49.9983
49.9982
49.9981
49.9979
49.9978
50.0008
50.0009
50.001
50.001
50.001
50.001
50.0009
50.0007
50.0005
50.0003
50.0045
50.0048
50.005
50.0051
50.0052
50.0051
50.005
50.0049
50.0046
50.0042
50.0102
50.0107
50.0111
50.0115
50.0117
50.0117
50.0117
50.0114
50.0111
50.0105
50.019
50.02
50.0209
50.0216
50.0221
50.0223
50.0223
50.022
50.0215
50.0207
50.0327
50.0347
50.0365
50.0379
50.0389
50.0396
50.0397
50.0394
50.0387
50.0375
50.0546
50.0587
50.0622
50.065
50.0672
50.0685
50.069
50.0688
50.0677
50.0658
129.986
129.986
129.986
129.986
129.986
129.986
129.985
129.985
129.985
129.985
129.987
129.987
129.987
129.987
129.986
129.986
129.986
129.986
129.986
129.985
129.988
129.988
129.988
129.988
129.988
129.988
129.987
129.987
129.987
129.987
129.99
129.99
129.99
129.99
129.99
129.99
129.99
129.989
129.989
129.989
129.994
129.994
129.994
129.994
129.993
129.993
129.993
129.993
129.992
129.992
129.998
129.998
129.998
129.998
129.998
129.998
129.997
129.997
129.997
129.996
130.004
130.004
130.004
130.004
130.004
130.004
130.004
130.003
130.003
130.002
130.011
130.012
130.012
130.012
130.012
130.012
130.012
130.011
130.01
130.01
130.021
130.022
130.023
130.023
130.023
130.023
130.023
130.022
130.021
130.02
130.033
130.035
130.036
130.036
130.037
130.037
130.036
130.036
130.035
130.033
189.975
189.975
189.975
189.974
189.974
189.974
189.974
189.974
189.973
189.973
189.975
189.975
189.975
189.975
189.975
189.975
189.974
189.974
189.974
189.974
189.976
189.976
189.976
189.976
189.976
189.976
189.975
189.975
189.975
189.975
189.978
189.978
189.978
189.978
189.977
189.977
189.977
189.977
189.976
189.976
189.98
189.98
189.98
189.98
189.98
189.98
189.979
189.979
189.979
189.978
189.983
189.983
189.983
189.983
189.983
189.982
189.982
189.982
189.981
189.981
189.987
189.987
189.987
189.987
189.987
189.986
189.986
189.985
189.985
189.984
189.992
189.992
189.992
189.991
189.991
189.991
189.991
189.99
189.989
189.989
189.997
189.997
189.997
189.997
189.997
189.996
189.996
189.995
189.995
189.994
190.004
190.004
190.004
190.004
190.004
190.003
190.003
190.002
190.001
190
229.963
229.962
229.962
229.962
229.962
229.962
229.962
229.962
229.961
229.961
229.963
229.963
229.963
229.963
229.962
229.962
229.962
229.962
229.962
229.962
229.963
229.963
229.963
229.963
229.963
229.963
229.963
229.963
229.962
229.962
229.964
229.964
229.964
229.964
229.964
229.964
229.964
229.963
229.963
229.963
229.966
229.966
229.965
229.965
229.965
229.965
229.965
229.965
229.964
229.964
229.967
229.967
229.967
229.967
229.967
229.967
229.966
229.966
229.966
229.966
229.969
229.969
229.969
229.969
229.969
229.969
229.968
229.968
229.968
229.967
229.972
229.971
229.971
229.971
229.971
229.971
229.97
229.97
229.97
229.969
229.974
229.974
229.974
229.974
229.974
229.974
229.973
229.973
229.972
229.972
229.977
229.977
229.977
229.976
229.976
229.976
229.976
229.975
229.975
229.974
249.952
249.952
249.952
249.952
249.951
249.951
249.951
249.951
249.951
249.951
249.952
249.952
249.952
249.952
249.952
249.952
249.951
249.951
249.951
249.951
249.952
249.952
249.952
249.952
249.952
249.952
249.952
249.952
249.952
249.951
249.952
249.952
249.952
249.952
249.952
249.952
249.952
249.952
249.952
249.952
249.953
249.953
249.953
249.953
249.952
249.952
249.952
249.952
249.952
249.952
249.953
249.953
249.953
249.953
249.953
249.953
249.953
249.953
249.953
249.953
249.954
249.954
249.954
249.954
249.954
249.953
249.953
249.953
249.953
249.953
249.954
249.954
249.954
249.954
249.954
249.954
249.954
249.954
249.954
249.954
249.955
249.955
249.955
249.955
249.955
249.955
249.955
249.955
249.954
249.954
249.957
249.957
249.957
249.956
249.956
249.956
249.956
249.956
249.956
249.956
249.944
249.944
249.944
249.944
249.944
249.944
249.944
249.944
249.944
249.945
249.944
249.944
249.944
249.944
249.944
249.944
249.944
249.944
249.944
249.944
249.944
249.944
249.944
249.944
249.944
249.944
249.944
249.944
249.944
249.944
249.943
249.943
249.944
249.944
249.944
249.944
249.944
249.944
249.944
249.944
249.943
249.943
249.943
249.943
249.943
249.943
249.943
249.943
249.944
249.944
249.943
249.943
249.943
249.943
249.943
249.943
249.943
249.943
249.943
249.943
249.942
249.942
249.942
249.942
249.942
249.942
249.942
249.942
249.943
249.943
249.941
249.941
249.941
249.941
249.941
249.942
249.942
249.942
249.942
249.942
249.94
249.941
249.941
249.941
249.941
249.941
249.941
249.941
249.941
249.941
249.939
249.939
249.939
249.939
249.939
249.939
249.94
249.94
249.94
249.94
229.942
229.942
229.942
229.942
229.942
229.942
229.942
229.942
229.943
229.943
229.941
229.941
229.941
229.942
229.942
229.942
229.942
229.942
229.942
229.943
229.941
229.941
229.941
229.941
229.941
229.941
229.941
229.942
229.942
229.942
229.94
229.94
229.94
229.94
229.94
229.94
229.94
229.941
229.941
229.941
229.938
229.938
229.939
229.939
229.939
229.939
229.939
229.939
229.94
229.94
229.937
229.937
229.937
229.937
229.937
229.937
229.938
229.938
229.938
229.938
229.935
229.935
229.935
229.935
229.935
229.936
229.936
229.936
229.936
229.937
229.932
229.933
229.933
229.933
229.933
229.933
229.934
229.934
229.934
229.935
229.93
229.93
229.93
229.93
229.93
229.931
229.931
229.931
229.932
229.932
229.927
229.927
229.927
229.928
229.928
229.928
229.928
229.929
229.929
229.93
189.946
189.946
189.946
189.946
189.947
189.947
189.947
189.947
189.947
189.948
189.945
189.946
189.946