/*--------------------------------*- C++ -*----------------------------------*\
| =========                 |                                                 |
| \\      /  F ield         | OpenFOAM: The Open Source CFD Toolbox           |
|  \\    /   O peration     | Version:  2.4.0                                 |
|   \\  /    A nd           | Web:      www.OpenFOAM.org                      |
|    \\/     M anipulation  |                                                 |
\*---------------------------------------------------------------------------*/
FoamFile
{
    version     2.0;
    format      ascii;
    class       volScalarField;
    location    "0.02";
    object      rho;
}
// * * * * * * * * * * * * * * * * * * * * * * * * * * * * * * * * * * * * * //

dimensions      [0 -3 1 0 0 1 0];

internalField   nonuniform List<scalar> 
9000
(
1.92399e-46
1.092e-43
4.01202e-41
1.12088e-38
2.38763e-36
3.74272e-34
4.11654e-32
3.00822e-30
1.37135e-28
3.55059e-27
9.72843e-43
5.08973e-40
1.6804e-37
4.13516e-35
7.64482e-33
1.02974e-30
9.68002e-29
6.04126e-27
2.35913e-25
5.28576e-24
2.30186e-39
1.10416e-36
3.25317e-34
6.99306e-32
1.11152e-29
1.27323e-27
1.01155e-25
5.32793e-24
1.76247e-22
3.3726e-21
3.34479e-36
1.4592e-33
3.79719e-31
7.04513e-29
9.49976e-27
9.12063e-25
6.02933e-23
2.63618e-21
7.26083e-20
1.16756e-18
3.30647e-33
1.29802e-30
2.94313e-28
4.63964e-26
5.21591e-24
4.11868e-22
2.21993e-20
7.88477e-19
1.76784e-17
2.33586e-16
2.33696e-30
8.14855e-28
1.58329e-25
2.08009e-23
1.90811e-21
1.21042e-19
5.18578e-18
1.45605e-16
2.58265e-15
2.72566e-14
1.21308e-27
3.70106e-25
6.04438e-23
6.4688e-21
4.71912e-19
2.33761e-17
7.71688e-16
1.65609e-14
2.2423e-13
1.82428e-12
4.69721e-25
1.23401e-22
1.65826e-20
1.40895e-18
7.93473e-17
2.96769e-15
7.27028e-14
1.14388e-12
1.13018e-11
6.77518e-11
1.37046e-22
3.05275e-20
3.30308e-18
2.16734e-16
9.11334e-15
2.4748e-13
4.29976e-12
4.70816e-11
3.20191e-10
1.33195e-09
3.03674e-20
5.66635e-18
4.84053e-16
2.38615e-14
7.22847e-13
1.36334e-11
1.59117e-10
1.13529e-09
4.91414e-09
1.3035e-08
2.70763e-47
1.30807e-44
3.62469e-42
7.2746e-40
1.12451e-37
1.35128e-35
1.25001e-33
8.51108e-32
3.81724e-30
8.37129e-29
6.77928e-44
3.07092e-41
7.84989e-39
1.43393e-36
1.99691e-34
2.14639e-32
1.75888e-30
1.05979e-28
4.22172e-27
8.30114e-26
8.02038e-41
3.39367e-38
7.96543e-36
1.31727e-33
1.64282e-31
1.56931e-29
1.13623e-27
6.00791e-26
2.10693e-24
3.68158e-23
5.91225e-38
2.32458e-35
4.9783e-33
7.40004e-31
8.20055e-29
6.90435e-27
4.38351e-25
2.02517e-23
6.17641e-22
9.47602e-21
3.02133e-35
1.09664e-32
2.12603e-30
2.81535e-28
2.74548e-26
2.01654e-24
1.11084e-22
4.43963e-21
1.16856e-19
1.54947e-18
1.12916e-32
3.75443e-30
6.52759e-28
7.61911e-26
6.46295e-24
4.0907e-22
1.93064e-20
6.59132e-19
1.47891e-17
1.67134e-16
3.17945e-30
9.60054e-28
1.48111e-25
1.50527e-23
1.09576e-21
5.89114e-20
2.34708e-18
6.74589e-17
1.27156e-15
1.20319e-14
6.86174e-28
1.86436e-25
2.52278e-23
2.20216e-21
1.35465e-19
6.08351e-18
2.01082e-16
4.7847e-15
7.4541e-14
5.77588e-13
1.1461e-25
2.77672e-23
3.2566e-21
2.40598e-19
1.22921e-17
4.522e-16
1.21474e-14
2.34686e-13
2.96812e-12
1.83289e-11
1.48899e-23
3.19193e-21
3.20826e-19
1.97607e-17
8.22655e-16
2.42305e-14
5.15633e-13
7.89912e-12
7.95586e-11
3.78488e-10
1.34353e-51
1.17027e-48
5.22193e-46
1.50069e-43
2.83747e-41
3.59079e-39
3.27953e-37
2.26687e-35
1.0893e-33
2.52953e-32
3.41211e-48
2.81762e-45
1.17853e-42
3.14349e-40
5.47322e-38
6.34322e-36
5.28983e-34
3.33709e-32
1.4669e-30
3.13794e-29
4.14357e-45
3.23555e-42
1.26459e-39
3.11897e-37
4.97936e-35
5.25967e-33
3.9837e-31
2.28028e-29
9.11165e-28
1.78404e-26
3.17563e-42
2.34213e-39
8.55279e-37
1.94505e-34
2.83165e-32
2.70923e-30
1.85088e-28
9.5407e-27
3.43748e-25
6.11015e-24
1.70889e-39
1.18602e-36
4.03196e-34
8.4521e-32
1.12278e-29
9.6839e-28
5.91662e-26
2.72093e-24
8.75099e-23
1.39782e-21
6.82715e-37
4.44072e-34
1.40022e-31
2.69747e-29
3.25668e-27
2.52576e-25
1.37692e-23
5.58518e-22
1.58395e-20
2.24559e-19
2.08935e-34
1.2682e-31
3.69534e-29
6.52638e-27
7.13454e-25
4.94178e-23
2.38461e-21
8.51583e-20
2.09827e-18
2.60105e-17
4.98557e-32
2.81106e-29
7.5425e-27
1.21967e-24
1.20382e-22
7.39377e-21
3.12662e-19
9.72462e-18
2.06927e-16
2.20144e-15
9.35811e-30
4.87732e-27
1.20079e-24
1.77926e-22
1.58384e-20
8.56246e-19
3.13728e-17
8.39424e-16
1.52412e-14
1.36862e-13
1.38497e-27
6.63525e-25
1.49236e-22
2.03459e-20
1.6368e-18
7.73274e-17
2.42302e-15
5.49674e-14
8.06318e-13
5.59301e-12
7.92437e-56
7.45705e-53
3.79408e-50
1.29109e-47
2.85684e-45
4.20068e-43
4.26134e-41
3.23479e-39
1.63445e-37
3.81396e-36
2.55639e-52
2.29676e-49
1.10851e-46
3.55769e-44
7.39051e-42
1.01689e-39
9.63577e-38
6.83069e-36
3.22798e-34
7.08156e-33
3.96352e-49
3.39255e-46
1.54933e-43
4.67626e-41
9.09027e-39
1.16619e-36
1.02808e-34
6.77599e-33
2.98053e-31
6.11702e-30
3.93609e-46
3.20177e-43
1.37951e-40
3.90222e-38
7.07073e-36
8.4205e-34
6.87261e-32
4.18889e-30
1.705e-28
3.25398e-27
2.8156e-43
2.1705e-40
8.79302e-38
2.32176e-35
3.90347e-33
4.29279e-31
3.22492e-29
1.8061e-27
6.75482e-26
1.1902e-24
1.54744e-40
1.12693e-37
4.27613e-35
1.04912e-32
1.62792e-30
1.64324e-28
1.12853e-26
5.76374e-25
1.96421e-23
3.16799e-22
6.80909e-38
4.66813e-35
1.65193e-32
3.74622e-30
5.33289e-28
4.90654e-26
3.05624e-24
1.36361e-22
4.03647e-21
5.70692e-20
2.43373e-35
1.56734e-32
5.17405e-30
1.08622e-27
1.39934e-25
1.10468e-23
5.92948e-22
2.28454e-20
5.8402e-19
7.14845e-18
7.18301e-33
4.32173e-30
1.28889e-27
2.38725e-25
2.69656e-23
1.84781e-21
8.52976e-20
2.81382e-18
6.12389e-17
6.37078e-16
1.63398e-30
8.99239e-28
2.40993e-25
3.97818e-23
3.96225e-21
2.36339e-19
9.3745e-18
2.60384e-16
4.70958e-15
4.05015e-14
3.54975e-59
3.46522e-56
1.82434e-53
6.42427e-51
1.47007e-48
2.22288e-46
2.32698e-44
1.81466e-42
9.42302e-41
2.25535e-39
1.32975e-55
1.24211e-52
6.21806e-50
2.07125e-47
4.46384e-45
6.32839e-43
6.20664e-41
4.52848e-39
2.20466e-37
4.9759e-36
2.42128e-52
2.16043e-49
1.02639e-46
3.22737e-44
6.5356e-42
8.66183e-40
7.93445e-38
5.39542e-36
2.45213e-34
5.19579e-33
2.82801e-49
2.40515e-46
1.0816e-43
3.20096e-41
6.07031e-39
7.48821e-37
6.37709e-35
4.01829e-33
1.69415e-31
3.34855e-30
2.3635e-46
1.9111e-43
8.10861e-41
2.25011e-38
3.97835e-36
4.54071e-34
3.57258e-32
2.06928e-30
8.0223e-29
1.46599e-27
1.49653e-43
1.1471e-40
4.57389e-38
1.18456e-35
1.94174e-33
2.03423e-31
1.46635e-29
7.71937e-28
2.71749e-26
4.53245e-25
7.41921e-41
5.37253e-38
2.00342e-35
4.8143e-33
7.26424e-31
6.90824e-29
4.50944e-27
2.12083e-25
6.64599e-24
9.90568e-23
2.92977e-38
1.99618e-35
6.91791e-33
1.53082e-30
2.10548e-28
1.7868e-26
1.03704e-24
4.31365e-23
1.19176e-21
1.56776e-20
9.28606e-36
5.91871e-33
1.88509e-30
3.78507e-28
4.68997e-26
3.55576e-24
1.83016e-22
6.67979e-21
1.60837e-19
1.84326e-18
2.34511e-33
1.38724e-30
4.04676e-28
7.37973e-26
8.23411e-24
5.57486e-22
2.54423e-20
8.09212e-19
1.68085e-17
1.66213e-16
2.01299e-62
2.02857e-59
1.09723e-56
3.95782e-54
9.25371e-52
1.424e-49
1.51878e-47
1.2048e-45
6.37302e-44
1.55445e-42
8.11768e-59
7.84215e-56
4.04127e-53
1.38207e-50
3.05103e-48
4.41106e-46
4.41907e-44
3.28686e-42
1.63393e-40
3.76753e-39
1.59894e-55
1.47848e-52
7.24616e-50
2.34523e-47
4.87857e-45
6.60881e-43
6.20152e-41
4.30909e-39
2.00478e-37
4.35116e-36
2.02916e-52
1.79236e-49
8.33466e-47
2.54609e-44
4.97575e-42
6.28989e-40
5.50472e-38
3.55355e-36
1.53784e-34
3.12192e-33
1.8487e-49
1.55628e-46
6.8455e-44
1.96693e-41
3.59672e-39
4.21928e-37
3.42371e-35
2.03796e-33
8.13505e-32
1.53122e-30
1.27807e-46
1.0226e-43
4.23898e-41
1.14066e-38
1.94184e-36
2.09911e-34
1.56732e-32
8.51955e-31
3.10233e-29
5.35041e-28
6.91836e-44
5.24438e-41
2.03956e-38
5.11244e-36
8.05296e-34
7.95486e-32
5.4144e-30
2.65763e-28
8.71233e-27
1.35641e-25
2.98503e-41
2.13574e-38
7.75069e-36
1.79823e-33
2.60261e-31
2.33054e-29
1.43209e-27
6.30147e-26
1.84496e-24
2.56772e-23
1.03751e-38
6.97571e-36
2.34845e-33
5.00856e-31
6.6223e-29
5.38152e-27
2.98437e-25
1.172e-23
3.04305e-22
3.75718e-21
2.92981e-36
1.84395e-33
5.75428e-31
1.12994e-28
1.36663e-26
1.00981e-24
5.06775e-23
1.7759e-21
4.08214e-20
4.46905e-19
1.05045e-65
1.09259e-62
6.07921e-60
2.25061e-57
5.39042e-55
8.47525e-53
9.23914e-51
7.4844e-49
4.04653e-47
1.00879e-45
4.48178e-62
4.47582e-59
2.37658e-56
8.35718e-54
1.89368e-51
2.80238e-49
2.87561e-47
2.18855e-45
1.11441e-43
2.6323e-42
9.384e-59
8.98511e-56
4.5454e-53
1.51564e-50
3.24313e-48
4.50561e-46
4.34032e-44
3.09241e-42
1.47705e-40
3.29159e-39
1.27173e-55
1.16534e-52
5.6039e-50
1.76745e-47
3.56138e-45
4.6269e-43
4.16727e-41
2.76494e-39
1.23147e-37
2.57317e-36
1.24242e-52
1.08719e-49
4.95561e-47
1.47359e-44
2.78578e-42
3.36739e-40
2.82016e-38
1.73039e-36
7.13003e-35
1.38524e-33
9.24398e-50
7.7051e-47
3.31763e-44
9.26395e-42
1.63566e-39
1.82835e-37
1.41422e-35
7.95754e-34
3.00393e-32
5.36833e-31
5.40451e-47
4.27846e-44
1.73321e-41
4.5234e-39
7.42037e-37
7.62131e-35
5.40391e-33
2.76459e-31
9.46321e-30
1.53713e-28
2.53114e-44
1.89682e-41
7.1982e-39
1.74704e-36
2.64898e-34
2.4887e-32
1.60811e-30
7.4411e-29
2.29528e-27
3.36303e-26
9.64046e-42
6.816e-39
2.41457e-36
5.43009e-34
7.5884e-32
6.53466e-30
3.8535e-28
1.61008e-26
4.459e-25
5.87061e-24
3.0503e-39
2.03044e-36
6.71964e-34
1.40416e-31
1.814e-29
1.43748e-27
7.77417e-26
2.94437e-24
7.34447e-23
8.72763e-22
4.94318e-69
5.30517e-66
3.03917e-63
1.15665e-60
2.84409e-58
4.58333e-56
5.12151e-54
4.2505e-52
2.35563e-50
6.01707e-49
2.21144e-65
2.28209e-62
1.24947e-59
4.52415e-57
1.05431e-54
1.60193e-52
1.6882e-50
1.31889e-48
6.89839e-47
1.67317e-45
4.877e-62
4.83268e-59
2.52485e-56
8.68387e-54
1.91461e-51
2.73594e-49
2.71232e-47
1.98776e-45
9.77389e-44
2.24161e-42
6.99213e-59
6.64173e-56
3.30412e-53
1.0769e-50
2.24042e-48
2.9999e-46
2.78678e-44
1.9062e-42
8.7611e-41
1.88858e-39
7.25698e-56
6.59455e-53
3.11545e-50
9.59301e-48
1.87674e-45
2.34355e-43
2.02957e-41
1.28731e-39
5.4893e-38
1.10328e-36
5.75941e-53
4.99507e-50
2.23381e-47
6.47421e-45
1.18612e-42
1.37384e-40
1.10238e-38
6.43512e-37
2.52335e-35
4.68182e-34
3.60725e-50
2.97788e-47
1.25606e-44
3.41219e-42
5.8276e-40
6.22845e-38
4.60174e-36
2.45472e-34
8.77486e-33
1.48757e-31
1.82032e-47
1.4262e-44
5.65356e-42
1.43371e-39
2.27346e-37
2.23607e-35
1.51527e-33
7.35815e-32
2.38614e-30
3.67374e-29
7.54834e-45
5.59792e-42
2.08084e-39
4.91643e-37
7.22919e-35
6.56225e-33
4.0897e-31
1.8082e-29
5.31178e-28
7.41693e-27
2.66343e-42
1.86752e-39
6.52061e-37
1.44062e-34
1.97249e-32
1.66119e-30
9.58126e-29
3.88106e-27
1.03906e-25
1.32542e-24
2.0999e-72
2.32437e-69
1.37148e-66
5.37082e-64
1.35773e-61
2.24724e-59
2.5789e-57
2.19744e-55
1.2506e-53
3.27797e-52
9.79335e-69
1.04371e-65
5.89395e-63
2.19928e-60
5.27774e-58
8.24978e-56
8.94511e-54
7.18848e-52
3.86902e-50
9.64985e-49
2.26148e-65
2.31758e-62
1.25073e-59
4.44017e-57
1.00984e-54
1.48719e-52
1.51988e-50
1.1481e-48
5.8218e-47
1.3761e-45
3.40974e-62
3.35476e-59
1.72668e-56
5.81887e-54
1.25112e-51
1.72981e-49
1.66005e-47
1.17302e-45
5.57326e-44
1.2412e-42
3.73744e-59
3.52361e-56
1.72525e-53
5.50324e-51
1.115e-48
1.44087e-46
1.29217e-44
8.48852e-43
3.75204e-41
7.81227e-40
3.14553e-56
2.83547e-53
1.31674e-50
3.9618e-48
7.53478e-46
9.05539e-44
7.54571e-42
4.57639e-40
1.86637e-38
3.59927e-37
2.09825e-53
1.80395e-50
7.91887e-48
2.2388e-45
3.98047e-43
4.42917e-41
3.41056e-39
1.89777e-37
7.08595e-36
1.25397e-34
1.13369e-50
9.27161e-48
3.83534e-45
1.01535e-42
1.68202e-40
1.72989e-38
1.22754e-36
6.24864e-35
2.12762e-33
3.43776e-32
5.0789e-48
3.94235e-45
1.53446e-42
3.79988e-40
5.86309e-38
5.59287e-36
3.67027e-34
1.71146e-32
5.31393e-31
7.8406e-30
1.98237e-45
1.45962e-42
5.35763e-40
1.24627e-37
1.79982e-35
1.6021e-33
9.79277e-32
4.21484e-30
1.20259e-28
1.6348e-27
8.06198e-76
9.19838e-73
5.59042e-70
2.25375e-67
5.86211e-65
9.9779e-63
1.17729e-60
1.03121e-58
6.03259e-57
1.62362e-55
3.90278e-72
4.29268e-69
2.50023e-66
9.61792e-64
2.37844e-61
3.82943e-59
4.27663e-57
3.53954e-55
1.96219e-53
5.03558e-52
9.39906e-69
9.95428e-66
5.54855e-63
2.03378e-60
4.77437e-58
7.25492e-56
7.651e-54
5.96435e-52
3.12188e-50
7.60971e-49
1.4848e-65
1.51186e-62
8.04943e-60
2.80542e-57
6.23717e-55
8.91486e-53
8.84662e-51
6.46544e-49
3.17845e-47
7.31758e-46
1.71287e-62
1.67384e-59
8.49183e-57
2.8064e-54
5.89093e-52
7.88626e-50
7.32983e-48
4.99252e-46
2.28943e-44
4.94129e-43
1.52382e-59
1.42617e-56
6.87471e-54
2.14728e-51
4.24019e-49
5.29162e-47
4.58172e-45
2.88931e-43
1.22622e-41
2.45888e-40
1.07905e-56
9.64966e-54
4.4059e-51
1.29595e-48
2.39821e-46
2.77868e-44
2.22993e-42
1.29446e-40
5.0478e-39
9.32251e-38
6.21666e-54
5.29916e-51
2.28523e-48
6.31028e-46
1.09112e-43
1.17227e-41
8.70043e-40
4.63805e-38
1.65622e-36
2.80483e-35
2.98691e-51
2.42211e-48
9.85407e-46
2.55287e-43
4.125e-41
4.12564e-39
2.84326e-37
1.39473e-35
4.56424e-34
7.09476e-33
1.27072e-48
9.79988e-46
3.77107e-43
9.20758e-41
1.3977e-38
1.30989e-36
8.44738e-35
3.84492e-33
1.16304e-31
1.67573e-30
5.14817e-18
8.00488e-16
5.32259e-14
1.92348e-12
4.05143e-11
5.0593e-10
3.72594e-09
1.59696e-08
3.96187e-08
5.92691e-08
6.80506e-18
1.01002e-15
6.42266e-14
2.22624e-12
4.51497e-11
5.45394e-10
3.90604e-09
1.63781e-08
3.9964e-08
5.90679e-08
6.82041e-18
1.01172e-15
6.43012e-14
2.22784e-12
4.51665e-11
5.45466e-10
3.90607e-09
1.6378e-08
3.99677e-08
5.90549e-08
6.81756e-18
1.01136e-15
6.42818e-14
2.22729e-12
4.51578e-11
5.45388e-10
3.9057e-09
1.63773e-08
3.99679e-08
5.9053e-08
6.81699e-18
1.01129e-15
6.42781e-14
2.22719e-12
4.51561e-11
5.45374e-10
3.90563e-09
1.63771e-08
3.99679e-08
5.90526e-08
6.81698e-18
1.01128e-15
6.42779e-14
2.22718e-12
4.5156e-11
5.45373e-10
3.90563e-09
1.63771e-08
3.9968e-08
5.90526e-08
6.81742e-18
1.01134e-15
6.42808e-14
2.22726e-12
4.51573e-11
5.45383e-10
3.90567e-09
1.63772e-08
3.99679e-08
5.90528e-08
6.81985e-18
1.01165e-15
6.42971e-14
2.22772e-12
4.51644e-11
5.45445e-10
3.90595e-09
1.63777e-08
3.99677e-08
5.90541e-08
6.80623e-18
1.01013e-15
6.42295e-14
2.22622e-12
4.51475e-11
5.45351e-10
3.9057e-09
1.6377e-08
3.99633e-08
5.90628e-08
5.17402e-18
8.03756e-16
5.33965e-14
1.92811e-12
4.05837e-11
5.0651e-10
3.72872e-09
1.59784e-08
3.96169e-08
5.92333e-08
1.50699e-21
2.84536e-19
2.4289e-17
1.22953e-15
4.08728e-14
9.38208e-13
1.52885e-11
1.79901e-10
1.41424e-09
4.94949e-09
1.75682e-21
3.14316e-19
2.54684e-17
1.22695e-15
3.89426e-14
8.57081e-13
1.34614e-11
1.53624e-10
1.29044e-09
4.70618e-09
1.71521e-21
3.06827e-19
2.48598e-17
1.1977e-15
3.80218e-14
8.37029e-13
1.31526e-11
1.50211e-10
1.26315e-09
4.65796e-09
1.70529e-21
3.05118e-19
2.47268e-17
1.19156e-15
3.78358e-14
8.33114e-13
1.30941e-11
1.49579e-10
1.25819e-09
4.64929e-09
1.70336e-21
3.04785e-19
2.47009e-17
1.19037e-15
3.77998e-14
8.32356e-13
1.30827e-11
1.49456e-10
1.25721e-09
4.64758e-09
1.70319e-21
3.04759e-19
2.46989e-17
1.19027e-15
3.77969e-14
8.32295e-13
1.30818e-11
1.49446e-10
1.25714e-09
4.64745e-09
1.70442e-21
3.04972e-19
2.47158e-17
1.19107e-15
3.78215e-14
8.32823e-13
1.30898e-11
1.49532e-10
1.25781e-09
4.64862e-09
1.71132e-21
3.0617e-19
2.48099e-17
1.19546e-15
3.79561e-14
8.35678e-13
1.31325e-11
1.4999e-10
1.26138e-09
4.6548e-09
1.74111e-21
3.11641e-19
2.52638e-17
1.21772e-15
3.86682e-14
8.51338e-13
1.33738e-11
1.52631e-10
1.28217e-09
4.69114e-09
1.40474e-21
2.66269e-19
2.28069e-17
1.15683e-15
3.84395e-14
8.79432e-13
1.4249e-11
1.66738e-10
1.37568e-09
4.87212e-09
1.61105e-25
7.04773e-23
1.4361e-20
1.81913e-18
1.33332e-16
5.46803e-15
1.44244e-13
2.55102e-12
2.85681e-11
1.51386e-10
1.31907e-25
5.45499e-23
1.0523e-20
1.26471e-18
1.06836e-16
4.61575e-15
1.2299e-13
2.19292e-12
2.60121e-11
1.43769e-10
1.17512e-25
4.86817e-23
9.40881e-21
1.13323e-18
9.59683e-17
4.30991e-15
1.16787e-13
2.10255e-12
2.51286e-11
1.40788e-10
1.14373e-25
4.74133e-23
9.16991e-21
1.10522e-18
9.36634e-17
4.246e-15
1.15516e-13
2.08439e-12
2.49535e-11
1.40182e-10
1.13721e-25
4.71502e-23
9.12046e-21
1.09944e-18
9.31898e-17
4.23297e-15
1.15259e-13
2.08072e-12
2.4918e-11
1.40058e-10
1.13694e-25
4.71368e-23
9.11743e-21
1.09903e-18
9.31538e-17
4.23198e-15
1.15239e-13
2.08044e-12
2.49153e-11
1.40048e-10
1.14116e-25
4.73076e-23
9.14971e-21
1.10286e-18
9.34754e-17
4.24085e-15
1.15415e-13
2.08296e-12
2.49396e-11
1.40132e-10
1.16434e-25
4.82315e-23
9.32142e-21
1.12283e-18
9.51216e-17
4.28669e-15
1.16331e-13
2.09605e-12
2.50651e-11
1.40563e-10
1.27291e-25
5.25782e-23
1.01329e-20
1.21767e-18
1.02995e-16
4.51134e-15
1.20943e-13
2.16357e-12
2.57196e-11
1.42723e-10
1.21476e-25
5.23128e-23
1.05835e-20
1.35163e-18
1.12977e-16
4.84616e-15
1.30581e-13
2.34682e-12
2.73683e-11
1.4706e-10
2.9237e-28
1.47169e-25
3.54703e-23
5.21787e-21
4.56912e-19
2.35899e-17
7.99646e-16
1.83586e-14
2.7011e-13
1.91028e-12
2.46084e-28
1.17824e-25
2.73072e-23
3.97975e-21
3.87914e-19
2.08765e-17
7.13037e-16
1.65062e-14
2.56963e-13
1.90359e-12
2.11709e-28
1.01814e-25
2.37384e-23
3.48637e-21
3.43959e-19
1.92016e-17
6.67819e-16
1.56367e-14
2.45788e-13
1.85066e-12
2.03905e-28
9.82092e-26
2.29417e-23
3.37699e-21
3.34239e-19
1.88277e-17
6.57742e-16
1.54441e-14
2.43307e-13
1.83803e-12
2.0226e-28
9.74474e-26
2.27733e-23
3.35391e-21
3.32192e-19
1.87488e-17
6.55615e-16
1.54034e-14
2.4278e-13
1.83528e-12
2.02183e-28
9.74103e-26
2.27643e-23
3.35254e-21
3.32058e-19
1.87438e-17
6.55482e-16
1.54009e-14
2.42747e-13
1.83511e-12
2.03267e-28
9.79085e-26
2.2874e-23
3.36758e-21
3.33404e-19
1.87957e-17
6.56886e-16
1.54279e-14
2.43097e-13
1.83691e-12
2.08941e-28
1.00513e-25
2.34446e-23
3.44521e-21
3.40264e-19
1.90601e-17
6.64034e-16
1.55648e-14
2.44852e-13
1.84567e-12
2.33744e-28
1.11956e-25
2.59688e-23
3.79071e-21
3.70911e-19
2.02377e-17
6.96155e-16
1.61867e-14
2.52785e-13
1.88152e-12
2.07392e-28
1.03475e-25
2.49919e-23
3.78902e-21
3.72337e-19
2.02093e-17
7.05397e-16
1.65794e-14
2.54386e-13
1.82738e-12
4.81035e-31
2.63982e-28
7.05355e-26
1.16619e-23
1.16921e-21
7.06356e-20
2.86257e-18
7.93711e-17
1.42205e-15
1.21935e-14
4.51247e-31
2.35227e-28
6.03565e-26
9.88488e-24
1.10034e-21
6.97305e-20
2.83742e-18
7.90631e-17
1.4955e-15
1.3404e-14
3.86834e-31
2.025e-28
5.22644e-26
8.62673e-24
9.76617e-22
6.42017e-20
2.6602e-18
7.49712e-17
1.43172e-15
1.30436e-14
3.71407e-31
1.94716e-28
5.03535e-26
8.33113e-24
9.47207e-22
6.28389e-20
2.61568e-18
7.39311e-17
1.41515e-15
1.29365e-14
3.68114e-31
1.93052e-28
4.99449e-26
8.26792e-24
9.40878e-22
6.25435e-20
2.606e-18
7.37041e-17
1.4115e-15
1.29121e-14
3.67943e-31
1.92963e-28
4.99216e-26
8.26398e-24
9.40437e-22
6.2522e-20
2.60526e-18
7.36858e-17
1.41119e-15
1.29098e-14
3.70123e-31
1.94062e-28
5.01907e-26
8.30556e-24
9.44601e-22
6.27176e-20
2.61174e-18
7.38394e-17
1.41368e-15
1.29264e-14
3.81193e-31
1.99626e-28
5.15484e-26
8.5138e-24
9.6505e-22
6.36612e-20
2.64254e-18
7.45597e-17
1.42511e-15
1.29987e-14
4.26129e-31
2.22338e-28
5.71223e-26
9.37138e-24
1.04776e-21
6.73307e-20
2.76023e-18
7.72816e-17
1.46696e-15
1.32134e-14
3.35613e-31
1.83028e-28
4.89662e-26
8.30371e-24
9.31339e-22
5.94725e-20
2.48729e-18
7.08221e-17
1.3246e-15
1.156e-14
6.90309e-34
4.06995e-31
1.18078e-28
2.14182e-26
2.37899e-24
1.60639e-22
7.33814e-21
2.31247e-19
4.7437e-18
4.65013e-17
7.5697e-34
4.23655e-31
1.17893e-28
2.11491e-26
2.60363e-24
1.84024e-22
8.42086e-21
2.66041e-19
5.75307e-18
5.8864e-17
6.59419e-34
3.70567e-31
1.03703e-28
1.87438e-26
2.34587e-24
1.71945e-22
8.00885e-21
2.55811e-19
5.58285e-18
5.80521e-17
6.34064e-34
3.5685e-31
1.00057e-28
1.81274e-26
2.2784e-24
1.68524e-22
7.88522e-21
2.52583e-19
5.52499e-18
5.76448e-17
6.28514e-34
3.53838e-31
9.9254e-29
1.79912e-26
2.26331e-24
1.67743e-22
7.85648e-21
2.51821e-19
5.51099e-18
5.75385e-17
6.28227e-34
3.53682e-31
9.92116e-29
1.79836e-26
2.2624e-24
1.67694e-22
7.85467e-21
2.51773e-19
5.51012e-18
5.75323e-17
6.31852e-34
3.55645e-31
9.9733e-29
1.80717e-26
2.27209e-24
1.68195e-22
7.87307e-21
2.52262e-19
5.51907e-18
5.75981e-17
6.49793e-34
3.6535e-31
1.02306e-28
1.85038e-26
2.31875e-24
1.70532e-22
7.95709e-21
2.54449e-19
5.55796e-18
5.78609e-17
7.1536e-34
4.00981e-31
1.11786e-28
2.00938e-26
2.48384e-24
1.77957e-22
8.20313e-21
2.60411e-19
5.65166e-18
5.81208e-17
4.90119e-34
2.8835e-31
8.38533e-29
1.55328e-26
1.9155e-24
1.35956e-22
6.40356e-21
2.07533e-19
4.4497e-18
4.44702e-17
8.43012e-37
5.28953e-34
1.64185e-31
3.20393e-29
3.84976e-27
2.82752e-25
1.41311e-23
4.90215e-22
1.11363e-20
1.20831e-19
1.1039e-36
6.5728e-34
1.95569e-31
3.77126e-29
5.01853e-27
3.85419e-25
1.92718e-23
6.69428e-22
1.60231e-20
1.81363e-19
9.89438e-37
5.91476e-34
1.76957e-31
3.43737e-29
4.64905e-27
3.70182e-25
1.8836e-23
6.61315e-22
1.59709e-20
1.83696e-19
9.56008e-37
5.72339e-34
1.71558e-31
3.34022e-29
4.53675e-27
3.64526e-25
1.86317e-23
6.55989e-22
1.58778e-20
1.83244e-19
9.48555e-37
5.68051e-34
1.70342e-31
3.31821e-29
4.51084e-27
3.6317e-25
1.8581e-23
6.54612e-22
1.58522e-20
1.83076e-19
9.48109e-37
5.678e-34
1.70271e-31
3.31691e-29
4.50918e-27
3.63071e-25
1.85768e-23
6.54486e-22
1.58495e-20
1.83053e-19
9.53003e-37
5.70614e-34
1.71068e-31
3.33127e-29
4.52598e-27
3.63951e-25
1.861e-23
6.55395e-22
1.58666e-20
1.83163e-19
9.76289e-37
5.84007e-34
1.74852e-31
3.39912e-29
4.60324e-27
3.6773e-25
1.87431e-23
6.58782e-22
1.59232e-20
1.83366e-19
1.05042e-36
6.26789e-34
1.86948e-31
3.61391e-29
4.82862e-27
3.75689e-25
1.89184e-23
6.60222e-22
1.58588e-20
1.80442e-19
6.26199e-37
3.93841e-34
1.22853e-31
2.44415e-29
3.23402e-27
2.48401e-25
1.27801e-23
4.56453e-22
1.08601e-20
1.2031e-19
8.71787e-40
5.78763e-37
1.90633e-34
3.96053e-32
5.08419e-30
4.00409e-28
2.15482e-26
8.08799e-25
1.99758e-23
2.35604e-22
1.37987e-39
8.6913e-37
2.74336e-34
5.62996e-32
8.00187e-30
6.58653e-28
3.54435e-26
1.33133e-24
3.46451e-23
4.2623e-22
1.28616e-39
8.13287e-37
2.58101e-34
5.33506e-32
7.70589e-30
6.57583e-28
3.60058e-26
1.36684e-24
3.58855e-23
4.48661e-22
1.25287e-39
7.93419e-37
2.52274e-34
5.22667e-32
7.58115e-30
6.52824e-28
3.5906e-26
1.3669e-24
3.5968e-23
4.51231e-22
1.24524e-39
7.88814e-37
2.50909e-34
5.20092e-32
7.55035e-30
6.51478e-28
3.58677e-26
1.36629e-24
3.59696e-23
4.51568e-22
1.24477e-39
7.88553e-37
2.50838e-34
5.19966e-32
7.54885e-30
6.51406e-28
3.58655e-26
1.36626e-24
3.59698e-23
4.51594e-22
1.24974e-39
7.91545e-37
2.51721e-34
5.21621e-32
7.56827e-30
6.52222e-28
3.58871e-26
1.36652e-24
3.59649e-23
4.51313e-22
1.2727e-39
8.05432e-37
2.55831e-34
5.29286e-32
7.65511e-30
6.55304e-28
3.59398e-26
1.36578e-24
3.58873e-23
4.49232e-22
1.33085e-39
8.40547e-37
2.66111e-34
5.4774e-32
7.81737e-30
6.51514e-28
3.52964e-26
1.3317e-24
3.47724e-23
4.30108e-22
6.97858e-40
4.6635e-37
1.5488e-34
3.28227e-32
4.60933e-30
3.7842e-28
2.09477e-26
8.10536e-25
2.10265e-23
2.53601e-22
7.82054e-43
5.47082e-40
1.90229e-37
4.18135e-35
5.69283e-33
4.7678e-31
2.73742e-29
1.1004e-27
2.92207e-26
3.70519e-25
1.50489e-42
9.98677e-40
3.32717e-37
7.2225e-35
1.08863e-32
9.52703e-31
5.46793e-29
2.19895e-27
6.1536e-26
8.13944e-25
1.47099e-42
9.79993e-40
3.28253e-37
7.17692e-35
1.0993e-32
9.97393e-31
5.82473e-29
2.36739e-27
6.68409e-26
8.98599e-25
1.44866e-42
9.66561e-40
3.2437e-37
7.1084e-35
1.0934e-32
1.00109e-30
5.87272e-29
2.39369e-27
6.77382e-26
9.13827e-25
1.44339e-42
9.63312e-40
3.23406e-37
7.09071e-35
1.09162e-32
1.00148e-30
5.88092e-29
2.39856e-27
6.79101e-26
9.16814e-25
1.443e-42
9.6311e-40
3.23357e-37
7.09003e-35
1.09158e-32
1.00152e-30
5.88143e-29
2.39884e-27
6.792e-26
9.16992e-25
1.44649e-42
9.65256e-40
3.23992e-37
7.10158e-35
1.09269e-32
1.0012e-30
5.87563e-29
2.39546e-27
6.78011e-26
9.14937e-25
1.46179e-42
9.74756e-40
3.26818e-37
7.15259e-35
1.09707e-32
9.98392e-31
5.83974e-29
2.37589e-27
6.71334e-26
9.03667e-25
1.4802e-42
9.85442e-40
3.29447e-37
7.17591e-35
1.08626e-32
9.61993e-31
5.55657e-29
2.24384e-27
6.299e-26
8.37803e-25
6.92053e-43
4.89008e-40
1.72017e-37
3.86391e-35
5.72898e-33
4.99422e-31
2.94892e-29
1.22326e-27
3.4217e-26
4.44236e-25
6.31079e-46
4.63696e-43
1.69572e-40
3.92641e-38
5.64162e-36
4.99675e-34
3.04175e-32
1.30042e-30
3.68428e-29
4.98337e-28
1.47975e-45
1.03136e-42
3.61333e-40
8.26155e-38
1.31418e-35
1.2161e-33
7.39886e-32
3.16391e-30
9.44845e-29
1.33325e-27
1.52509e-45
1.0671e-42
3.75873e-40
8.65591e-38
1.39925e-35
1.34249e-33
8.31136e-32
3.59218e-30
1.0824e-28
1.55263e-27
1.52139e-45
1.06611e-42
3.76241e-40
8.68453e-38
1.40983e-35
1.36503e-33
8.48939e-32
3.67973e-30
1.11137e-28
1.59985e-27
1.52031e-45
1.06565e-42
3.76222e-40
8.68829e-38
1.41165e-35
1.36957e-33
8.52628e-32
3.69811e-30
1.1175e-28
1.60987e-27
1.52016e-45
1.06562e-42
3.7624e-40
8.6893e-38
1.41192e-35
1.36993e-33
8.52894e-32
3.6994e-30
1.11792e-28
1.61056e-27
1.52096e-45
1.06598e-42
3.76266e-40
8.68696e-38
1.41065e-35
1.36684e-33
8.50386e-32
3.68686e-30
1.11373e-28
1.60371e-27
1.52358e-45
1.0671e-42
3.76266e-40
8.67411e-38
1.40413e-35
1.35115e-33
8.3776e-32
3.62427e-30
1.09288e-28
1.5697e-27
1.4909e-45
1.04276e-42
3.66701e-40
8.41518e-38
1.34447e-35
1.25839e-33
7.70187e-32
3.30579e-30
9.89989e-29
1.40484e-27
6.27005e-46
4.66469e-43
1.73044e-40
4.1035e-38
6.40252e-36
5.89787e-34
3.69058e-32
1.62795e-30
4.86664e-29
6.74107e-28
2.86249e-20
5.34484e-18
4.57727e-16
2.26304e-14
6.87177e-13
1.29752e-11
1.5133e-10
1.07403e-09
4.31082e-09
-2.74245e-08
1.20027e-22
2.66782e-20
2.88476e-18
1.89042e-16
7.9196e-15
2.13444e-13
3.65947e-12
3.91279e-11
2.48432e-10
4.31245e-10
3.7862e-25
9.85503e-23
1.31121e-20
1.09964e-18
6.08096e-17
2.2167e-15
5.23623e-14
7.81981e-13
7.27722e-12
6.28693e-11
8.93073e-28
2.67272e-25
4.26237e-23
4.42494e-21
3.10334e-19
1.45982e-17
4.49629e-16
8.76216e-15
1.02551e-13
1.8228e-13
1.56387e-30
5.28888e-28
9.87411e-26
1.23271e-23
1.05986e-21
6.1863e-20
2.3739e-18
5.75156e-17
7.74786e-16
-3.42938e-15
2.0087e-33
7.56403e-31
1.6213e-28
2.37819e-26
2.44091e-24
1.71549e-22
7.94871e-21
2.29016e-19
3.35225e-18
-3.50525e-17
1.8493e-36
7.66269e-34
1.85779e-31
3.14794e-29
3.78663e-27
3.14308e-25
1.72639e-23
5.78269e-22
8.83951e-21
-1.96692e-19
1.16527e-39
5.26528e-37
1.42886e-34
2.76662e-32
3.86134e-30
3.76637e-28
2.44502e-26
9.56988e-25
1.49844e-23
-8.20268e-22
4.54891e-43
2.2269e-40
6.72003e-38
1.47899e-35
2.3905e-33
2.75909e-31
2.14489e-29
1.01123e-27
1.54856e-26
-2.65123e-24
8.39603e-47
4.43521e-44
1.48369e-41
3.70946e-39
6.98206e-37
9.64459e-35
9.17273e-33
5.44206e-31
5.72349e-30
-5.97602e-27
1.27106e-23
2.74126e-21
2.77352e-19
1.71753e-17
7.16606e-16
2.10649e-14
4.50006e-13
9.25836e-12
1.06036e-09
2.38159e-07
8.95962e-26
2.18264e-23
2.56945e-21
1.89324e-19
9.43024e-18
2.94678e-16
-2.57274e-15
-1.97457e-12
-3.30824e-10
-4.30828e-08
4.93099e-28
1.34514e-25
1.8229e-23
1.61335e-21
1.14736e-19
1.09327e-17
1.87041e-15
3.39094e-13
4.76815e-11
4.59676e-09
2.11362e-30
6.40045e-28
9.85915e-26
1.0182e-23
8.6089e-22
8.13239e-20
7.89602e-18
-2.00249e-16
-3.55417e-13
-8.83206e-11
7.00073e-33
2.3358e-30
4.04519e-28
4.71722e-26
3.98534e-24
8.95398e-23
-1.09777e-19
-4.56069e-17
-1.04877e-14
-1.31009e-12
1.76406e-35
6.44873e-33
1.2484e-30
1.62581e-28
1.28553e-26
-1.45266e-24
-1.27367e-21
-4.3789e-19
-9.20136e-17
-1.0263e-14
3.28653e-38
1.31095e-35
2.83379e-33
4.16374e-31
3.36608e-29
-7.70206e-27
-5.96722e-24
-2.16485e-21
-4.86627e-19
-5.78061e-17
4.2943e-41
1.86307e-38
4.50125e-36
7.59101e-34
7.4065e-32
-1.58411e-29
-1.48937e-26
-6.27809e-24
-1.68024e-21
-2.47331e-19
3.53754e-44
1.66495e-41
4.50165e-39
8.82591e-37
1.13844e-34
-1.2002e-32
-1.92728e-29
-1.02585e-26
-3.85024e-24
-8.10421e-22
1.39307e-47
7.10401e-45
2.15366e-42
4.94773e-40
8.50124e-38
1.46613e-36
-1.00029e-32
-8.17003e-30
-4.96856e-27
-1.84838e-24
9.38234e-28
4.39222e-25
9.65554e-23
1.31484e-20
1.167e-18
5.6472e-17
1.84771e-15
4.44667e-14
1.27303e-12
3.15281e-09
5.89952e-30
2.99405e-27
7.09682e-25
1.02261e-22
9.54581e-21
5.74034e-19
4.39292e-17
1.14242e-14
1.82418e-10
6.06254e-07
2.75134e-32
7.7744e-30
-8.42608e-27
-1.10724e-23
-8.28388e-21
-5.24306e-18
-3.19159e-15
-1.78825e-12
-7.53664e-10
-1.99823e-07
2.72117e-34
6.11747e-31
9.78935e-28
1.10758e-24
9.29767e-22
6.06718e-19
3.10671e-16
1.21285e-13
3.4751e-11
7.34814e-09
2.43622e-36
7.13423e-33
1.05969e-29
9.20722e-27
4.63281e-24
9.05846e-22
-4.41383e-19
-4.1361e-16
-1.6572e-13
-4.62853e-11
1.10023e-38
3.28116e-35
4.41122e-32
2.97474e-29
5.68254e-27
-6.87778e-24
-6.65528e-21
-2.96016e-18
-7.98861e-16
-1.27835e-13
2.63135e-41
7.57212e-38
8.77426e-35
3.11526e-32
-3.5306e-29
-5.34755e-26
-3.41091e-23
-1.28581e-20
-3.00382e-18
-3.88375e-16
3.53463e-44
9.53284e-41
8.20976e-38
-4.45236e-35
-1.68426e-31
-1.80795e-28
-1.11036e-25
-4.29268e-23
-1.0237e-20
-1.2537e-18
2.60552e-47
6.39491e-44
2.27477e-41
-1.36039e-37
-2.91642e-34
-3.11298e-31
-2.1068e-28
-9.51449e-26
-2.79072e-23
-4.43796e-21
8.40336e-51
1.75005e-47
-1.26016e-44
-1.03753e-40
-2.03015e-37
-2.33439e-34
-1.82535e-31
-1.02043e-28
-4.30462e-26
-1.42858e-23
7.89428e-31
4.24736e-28
1.1012e-25
1.80017e-23
2.08541e-21
1.37552e-19
5.93421e-18
1.77265e-16
3.59808e-15
3.50202e-13
2.62685e-33
1.5209e-30
4.18037e-28
7.00748e-26
7.73122e-24
4.7141e-22
1.64431e-20
5.47849e-18
1.38745e-14
8.86303e-11
8.36441e-36
7.13311e-33
6.13881e-30
6.57757e-27
6.37238e-24
5.48329e-21
4.68429e-18
3.94079e-15
2.60781e-12
1.08261e-09
-2.02976e-37
-1.10877e-33
-2.67022e-30
-4.04995e-27
-4.3916e-24
-3.59645e-21
-2.24265e-18
-1.03445e-15
-3.38321e-13
-7.69382e-11
1.17773e-41
3.95811e-36
2.09188e-32
5.03972e-29
7.26759e-26
6.87914e-23
4.41892e-20
1.94837e-17
5.97704e-15
1.3282e-12
2.36733e-41
1.35659e-37
3.42225e-34
4.91008e-31
4.31423e-28
2.289e-25
6.15646e-23
-3.01545e-21
-9.73888e-18
-4.69064e-15
1.45455e-43
7.71693e-40
1.81428e-36
2.44657e-33
2.05095e-30
1.07499e-27
3.2283e-25
3.0318e-23
-1.455e-20
-5.0585e-18
3.47685e-46
1.88284e-42
4.57669e-39
6.50633e-36
5.92313e-33
3.54207e-30
1.35527e-27
2.92267e-25
1.6423e-23
-5.40343e-21
3.87251e-49
2.22206e-45
5.81566e-42
9.09838e-39
9.3855e-36
6.62306e-33
3.18912e-30
9.9741e-28
1.73656e-25
8.81351e-24
1.81554e-52
1.13222e-48
3.2675e-45
5.74993e-42
6.8397e-39
5.75073e-36
3.46063e-33
1.46883e-30
4.18132e-28
7.2225e-26
1.03237e-33
6.03883e-31
1.7369e-28
3.17788e-26
3.92289e-24
2.79785e-22
1.31576e-20
4.22946e-19
8.7153e-18
1.74685e-17
2.79927e-36
1.75859e-33
5.29637e-31
9.75252e-29
1.152e-26
7.14908e-25
8.47607e-24
-7.17408e-21
-3.41121e-18
2.38472e-15
7.10386e-39
6.06222e-36
4.85063e-33
5.13988e-30
4.95559e-27
3.8782e-24
2.61704e-21
1.56611e-18
6.37991e-16
6.97021e-14
-8.91024e-41
-5.27853e-37
-1.29366e-33
-1.8978e-30
-1.84089e-27
-1.17188e-24
-3.95185e-22
5.92004e-20
1.49276e-16
8.48995e-14
-4.88528e-43
-2.32124e-39