/*--------------------------------*- C++ -*----------------------------------*\
  =========                 |
  \\      /  F ield         | OpenFOAM: The Open Source CFD Toolbox
   \\    /   O peration     | Website:  https://openfoam.org
    \\  /    A nd           | Version:  dev
     \\/     M anipulation  |
\*---------------------------------------------------------------------------*/
FoamFile
{
    version     2.0;
    format      ascii;
    class       volScalarField;
    location    "0.005";
    object      phi;
}
// * * * * * * * * * * * * * * * * * * * * * * * * * * * * * * * * * * * * * //

dimensions      [1 2 -3 0 0 -1 0];

internalField   nonuniform List<scalar> 
9000
(
49.9949
49.9949
49.9949
49.995
49.9951
49.9952
49.9953
49.9954
49.9954
49.9955
49.9951
49.9951
49.9951
49.9952
49.9954
49.9955
49.9956
49.9957
49.9958
49.9959
49.9955
49.9955
49.9956
49.9957
49.9959
49.9961
49.9963
49.9965
49.9966
49.9968
49.9961
49.9962
49.9963
49.9965
49.9967
49.997
49.9974
49.9977
49.998
49.9982
49.9969
49.997
49.9972
49.9976
49.9979
49.9984
49.999
49.9995
50.0001
50.0005
49.9981
49.9982
49.9985
49.999
49.9996
50.0003
50.0012
50.0022
50.0031
50.004
49.9994
49.9997
50.0001
50.0008
50.0018
50.0029
50.0043
50.0059
50.0076
50.0092
50.0011
50.0014
50.0021
50.0031
50.0045
50.0063
50.0086
50.0112
50.0141
50.0171
50.0031
50.0036
50.0045
50.006
50.008
50.0108
50.0143
50.0186
50.0236
50.029
50.0054
50.006
50.0073
50.0093
50.0123
50.0163
50.0217
50.0285
50.0371
50.0471
129.986
129.986
129.986
129.986
129.986
129.986
129.986
129.986
129.986
129.986
129.986
129.986
129.986
129.986
129.987
129.987
129.987
129.987
129.987
129.987
129.987
129.987
129.987
129.987
129.988
129.988
129.988
129.988
129.988
129.988
129.988
129.988
129.988
129.989
129.989
129.989
129.99
129.99
129.99
129.99
129.99
129.99
129.99
129.991
129.991
129.992
129.992
129.993
129.993
129.994
129.992
129.992
129.993
129.993
129.994
129.995
129.996
129.996
129.997
129.998
129.995
129.995
129.996
129.996
129.997
129.998
130
130.001
130.002
130.003
129.998
129.998
129.999
130
130.001
130.003
130.005
130.007
130.009
130.011
130.001
130.002
130.003
130.004
130.006
130.009
130.011
130.014
130.017
130.02
130.005
130.006
130.007
130.009
130.012
130.015
130.019
130.023
130.027
130.031
189.975
189.975
189.975
189.975
189.975
189.975
189.975
189.975
189.975
189.975
189.975
189.975
189.975
189.975
189.976
189.976
189.976
189.976
189.976
189.975
189.976
189.976
189.976
189.976
189.976
189.977
189.977
189.977
189.977
189.977
189.977
189.977
189.977
189.978
189.978
189.978
189.978
189.978
189.978
189.978
189.979
189.979
189.979
189.979
189.98
189.98
189.98
189.98
189.98
189.98
189.981
189.981
189.981
189.982
189.982
189.982
189.983
189.983
189.983
189.983
189.983
189.983
189.984
189.984
189.985
189.985
189.986
189.986
189.987
189.987
189.986
189.986
189.987
189.987
189.988
189.989
189.99
189.99
189.991
189.991
189.989
189.99
189.99
189.991
189.992
189.993
189.994
189.995
189.996
189.997
189.993
189.993
189.994
189.995
189.996
189.997
189.999
190
190.002
190.003
229.963
229.963
229.963
229.963
229.963
229.963
229.963
229.963
229.963
229.963
229.963
229.963
229.963
229.963
229.963
229.963
229.963
229.963
229.963
229.963
229.964
229.964
229.964
229.964
229.964
229.964
229.964
229.964
229.964
229.964
229.965
229.965
229.965
229.965
229.965
229.965
229.965
229.965
229.965
229.965
229.966
229.966
229.966
229.966
229.966
229.966
229.966
229.966
229.966
229.966
229.967
229.967
229.967
229.967
229.967
229.967
229.967
229.968
229.968
229.967
229.968
229.969
229.969
229.969
229.969
229.969
229.969
229.969
229.969
229.969
229.97
229.97
229.97
229.971
229.971
229.971
229.971
229.972
229.972
229.972
229.972
229.972
229.973
229.973
229.973
229.973
229.974
229.974
229.974
229.974
229.975
229.975
229.975
229.975
229.976
229.976
229.976
229.977
229.977
229.977
249.952
249.952
249.952
249.952
249.952
249.952
249.952
249.952
249.952
249.952
249.952
249.952
249.952
249.952
249.952
249.952
249.952
249.952
249.952
249.952
249.952
249.952
249.952
249.952
249.952
249.952
249.952
249.952
249.952
249.952
249.952
249.952
249.952
249.952
249.952
249.952
249.952
249.952
249.952
249.952
249.953
249.953
249.953
249.953
249.953
249.953
249.953
249.953
249.953
249.953
249.953
249.953
249.953
249.953
249.953
249.953
249.953
249.953
249.953
249.953
249.954
249.954
249.954
249.954
249.954
249.954
249.954
249.954
249.954
249.954
249.954
249.954
249.954
249.954
249.954
249.955
249.955
249.955
249.955
249.955
249.955
249.955
249.955
249.955
249.955
249.955
249.955
249.955
249.955
249.955
249.956
249.956
249.956
249.956
249.956
249.956
249.956
249.956
249.956
249.957
249.944
249.944
249.944
249.944
249.944
249.944
249.944
249.944
249.944
249.944
249.944
249.944
249.944
249.944
249.944
249.944
249.944
249.944
249.944
249.944
249.944
249.944
249.944
249.944
249.944
249.944
249.944
249.944
249.944
249.944
249.943
249.943
249.943
249.943
249.943
249.943
249.943
249.943
249.943
249.943
249.943
249.943
249.943
249.943
249.943
249.943
249.943
249.943
249.943
249.943
249.943
249.942
249.942
249.942
249.942
249.942
249.942
249.942
249.942
249.942
249.942
249.942
249.942
249.942
249.942
249.942
249.942
249.942
249.942
249.942
249.941
249.941
249.941
249.941
249.941
249.941
249.941
249.941
249.941
249.941
249.941
249.941
249.941
249.941
249.941
249.94
249.94
249.94
249.94
249.94
249.94
249.94
249.94
249.94
249.94
249.94
249.939
249.939
249.939
249.939
229.941
229.941
229.941
229.941
229.941
229.941
229.941
229.941
229.941
229.941
229.941
229.941
229.941
229.941
229.941
229.941
229.941
229.941
229.941
229.941
229.94
229.94
229.94
229.94
229.94
229.94
229.94
229.94
229.94
229.94
229.939
229.939
229.939
229.939
229.939
229.939
229.939
229.939
229.939
229.94
229.938
229.938
229.938
229.938
229.938
229.938
229.938
229.938
229.938
229.938
229.937
229.937
229.937
229.937
229.937
229.937
229.937
229.937
229.937
229.937
229.936
229.936
229.935
229.935
229.935
229.935
229.935
229.935
229.935
229.935
229.934
229.934
229.934
229.933
229.933
229.933
229.933
229.932
229.932
229.932
229.932
229.932
229.932
229.931
229.931
229.931
229.93
229.93
229.93
229.93
229.929
229.929
229.929
229.929
229.929
229.928
229.928
229.927
229.927
229.927
189.946
189.946
189.946
189.946
189.946
189.946
189.946
189.946
189.946
189.946
189.945
189.945
189.945
189.945
189.945
189.945
189.945
189.945
189.945
189.945
189.945
189.945
189.945
189.944
189.944
189.944
189.944
189.944
189.944
189.944
189.943
189.943
189.943
189.943
189.943
189.943
189.943
189.943
189.943
189.943
189.942
189.942
189.942
189.941
189.941
189.941
189.941
189.94
189.94
189.94
189.94
189.94
189.94
189.939
189.939
189.938
189.938
189.938
189.937
189.937
189.937
189.937
189.937
189.937
189.936
189.936
189.935
189.934
189.934
189.934
189.935
189.934
189.934
189.933
189.933
189.932
189.931
189.93
189.93
189.929
189.931
189.931
189.931
189.93
189.929
189.928
189.927
189.926
189.925
189.924
189.928
189.928
189.927
189.926
189.925
189.923
189.922
189.92
189.919
189.918
129.96
129.96
129.96
129.96
129.96
129.96
129.959
129.959
129.959
129.959
129.96
129.96
129.959
129.959
129.959
129.959
129.959
129.959
129.959
129.959
129.959
129.959
129.959
129.958
129.958
129.958
129.958
129.958
129.957
129.957
129.958
129.957
129.957
129.957
129.957
129.956
129.956
129.956
129.955
129.955
129.956
129.956
129.955
129.955
129.955
129.954
129.954
129.953
129.953
129.952
129.954
129.953
129.953
129.953
129.952
129.951
129.95
129.949
129.949
129.948
129.951
129.951
129.95
129.949
129.949
129.947
129.946
129.945
129.944
129.942
129.948
129.948
129.947
129.946
129.944
129.943
129.941
129.939
129.937
129.935
129.944
129.944
129.943
129.941
129.94
129.937
129.935
129.932
129.929
129.926
129.94
129.94
129.938
129.936
129.934
129.931
129.927
129.923
129.919
129.915
49.9843
49.9843
49.9842
49.9841
49.984
49.9839
49.9838
49.9838
49.9837
49.9837
49.9841
49.9841
49.984
49.9839
49.9838
49.9837
49.9835
49.9834
49.9833
49.9833
49.9837
49.9836
49.9835
49.9834
49.9833
49.9831
49.9829
49.9827
49.9825
49.9824
49.9831
49.983
49.9829
49.9827
49.9824
49.9821
49.9818
49.9815
49.9811
49.9809
49.9822
49.9821
49.9819
49.9816
49.9812
49.9807
49.9802
49.9796
49.9791
49.9786
49.9811
49.9809
49.9806
49.9802
49.9796
49.9788
49.9779
49.977
49.976
49.9751
49.9797
49.9795
49.979
49.9783
49.9774
49.9762
49.9748
49.9732
49.9716
49.9699
49.978
49.9777
49.977
49.976
49.9746
49.9728
49.9706
49.9679
49.965
49.9621
49.9761
49.9756
49.9746
49.9732
49.9711
49.9684
49.9649
49.9606
49.9556
49.9501
49.9738
49.9732
49.9718
49.9698
49.9668
49.9628
49.9575
49.9506
49.9421
49.932
50.028
50.0304
50.0356
50.0441
50.057
50.076
50.1035
50.1433
50.2011
50.2854
50.0327
50.0353
50.0408
50.0498
50.0633
50.083
50.1114
50.1524
50.2115
50.2972
50.0332
50.0359
50.0415
50.0506
50.0642
50.084
50.1125
50.1536
50.2129
50.299
50.032
50.0342
50.0394
50.0481
50.0613
50.0808
50.1089
50.1494
50.2079
50.2929
50.0326
50.0355
50.0412
50.0503
50.0641
50.084
50.1127
50.1539
50.2135
50.2998
50.0283
50.0307
50.0361
50.0449
50.0583
50.0779
50.1061
50.1468
50.2056
50.291
50.0174
50.0201
50.0255
50.0344
50.0478
50.0673
50.0956
50.1363
50.1952
50.2808
49.9848
49.9869
49.9917
49.9997
50.012
50.0303
50.0569
50.0958
50.1526
50.2358
49.9514
49.9522
49.9539
49.957
49.9627
49.9727
49.9894
50.0168
50.0606
50.1294
50.3721
50.3616
50.3407
50.3093
50.2674
50.2154
50.1543
50.0859
50.0143
49.9463
130.046
130.048
130.053
130.06
130.07
130.082
130.098
130.116
130.136
130.157
130.054
130.056
130.061
130.069
130.079
130.092
130.107
130.126
130.147
130.168
130.054
130.056
130.06
130.067
130.077
130.09
130.105
130.123
130.144
130.165
130.059
130.063
130.068
130.076
130.087
130.101
130.118
130.137
130.159
130.182
130.048
130.05
130.054
130.061
130.07
130.083
130.098
130.115
130.135
130.156
130.045
130.048
130.053
130.061
130.071
130.084
130.1
130.119
130.141
130.163
130.009
130.012
130.016
130.023
130.033
130.045
130.06
130.078
130.098
130.119
129.919
129.921
129.925
129.93
129.937
129.947
129.958
129.972
129.988
130.004
129.823
129.819
129.812
129.803
129.79
129.774
129.756
129.736
129.711
129.683
131.202
131.175
131.119
131.035
130.919
130.77
130.586
130.362
130.095
129.776
190.026
190.027
190.029
190.032
190.036
190.04
190.046
190.051
190.057
190.062
190.039
190.04
190.042
190.046
190.05
190.056
190.061
190.068
190.074
190.079
190.042
190.044
190.047
190.051
190.055
190.061
190.067
190.074
190.081
190.087
190.028
190.028
190.029
190.032
190.035
190.039
190.044
190.049
190.053
190.057
190.042
190.045
190.048
190.052
190.057
190.063
190.07
190.077
190.085
190.092
190.015
190.015
190.017
190.02
190.024
190.029
190.034
190.04
190.045
190.049
189.969
189.971
189.973
189.976
189.98
189.985
189.99
189.995
190
190.004
189.82
189.819
189.818
189.818
189.817
189.816
189.814
189.811
189.807
189.801
189.706
189.7
189.686
189.665
189.636
189.6
189.556
189.504
189.444
189.375
192.13
192.094
192.02
191.908
191.755
191.557
191.309
191.007
190.643
190.207
229.998
229.999
230
230.001
230.002
230.004
230.006
230.008
230.01
230.011
230.001
230.001
230.002
230.003
230.005
230.006
230.008
230.009
230.011
230.011
229.997
229.997
229.997
229.998
229.999
230
230.001
230.002
230.003
230.003
230.016
230.018
230.02
230.022
230.024
230.027
230.03
230.033
230.036
230.039
229.985
229.983
229.983
229.984
229.984
229.985
229.985
229.986
229.986
229.985
229.985
229.986
229.987
229.989
229.99
229.992
229.994
229.997
229.998
230
229.912
229.912
229.912
229.913
229.913
229.914
229.914
229.914
229.914
229.913
229.74
229.74
229.738
229.735
229.731
229.726
229.719
229.711
229.702
229.691
229.59
229.579
229.558
229.527
229.487
229.436
229.374
229.302
229.22
229.127
232.982
232.944
232.865
232.743
232.575
232.357
232.083
231.745
231.334
230.841
249.96
249.96
249.96
249.96
249.96
249.96
249.961
249.961
249.961
249.96
249.968
249.968
249.968
249.968
249.969
249.969
249.97
249.97
249.97
249.971
249.973
249.974
249.974
249.975
249.976
249.977
249.978
249.979
249.98
249.981
249.947
249.946
249.945
249.944
249.943
249.943
249.942
249.941
249.94
249.938
249.975
249.976
249.977
249.979
249.98
249.981
249.982
249.984
249.985
249.987
249.931
249.93
249.93
249.93
249.93
249.93
249.929
249.929
249.928
249.927
249.87
249.87
249.87
249.87
249.87
249.869
249.868
249.868
249.866
249.865
249.661
249.658
249.654
249.649
249.642
249.634
249.624
249.612
249.599
249.584
249.543
249.533
249.511
249.478
249.433
249.377
249.31
249.232
249.142
249.041
253.458
253.417
253.335
253.209
253.034
252.806
252.519
252.163
251.73
251.207
249.936
249.936
249.936
249.936
249.936
249.935
249.935
249.935
249.935
249.935
249.928
249.928
249.927
249.927
249.927
249.926
249.926
249.925
249.925
249.925
249.921
249.92
249.92
249.919
249.918
249.918
249.917
249.916
249.915
249.914
249.946
249.948
249.949
249.949
249.95
249.95
249.951
249.951
249.953
249.954
249.905
249.904
249.903
249.902
249.901
249.9
249.899
249.897
249.896
249.894
249.91
249.911
249.911
249.911
249.911
249.91
249.91
249.91
249.91
249.911
249.828
249.827
249.826
249.825
249.824
249.822
249.821
249.819
249.816
249.814
249.64
249.639
249.636
249.631
249.624
249.616
249.606
249.595
249.583
249.569
249.483
249.471
249.447
249.413
249.366
249.309
249.239
249.159
249.066
248.963
253.444
253.405
253.323
253.197
253.022
252.794
252.507
252.152
251.719
251.197
229.905
229.905
229.904
229.903
229.901
229.899
229.898
229.896
229.894
229.893
229.903
229.903
229.902
229.901
229.899
229.898
229.896
229.895
229.893
229.892
229.908
229.908
229.908
229.907
229.906
229.904
229.903
229.902
229.901
229.9
229.881
229.879
229.877
229.876
229.874
229.872
229.869
229.867
229.864
229.862
229.911
229.911
229.911
229.91
229.909
229.908
229.907
229.906
229.906
229.906
229.868
229.867
229.866
229.864
229.862
229.86
229.858
229.856
229.854
229.853
229.814
229.814
229.813
229.811
229.809
229.807
229.804
229.801
229.798
229.796
229.623
229.62
229.616
229.61
229.602
229.593
229.582
229.57
229.556
229.542
229.509
229.499
229.478
229.446
229.404
229.35
229.287
229.213
229.13
229.036
232.882
232.841
232.76
232.635
232.464
232.241
231.963
231.62
231.206
230.708
189.896
189.895
189.893
189.89
189.886
189.881
189.875
189.87
189.864
189.859
189.881
189.88
189.878
189.874
189.87
189.865
189.859
189.853
189.847
189.842
189.875
189.873
189.871
189.867
189.863
189.857
189.851
189.845
189.839
189.833
189.897
189.896
189.894
189.891
189.887
189.882
189.876
189.871
189.865
189.861
189.862
189.86
189.858
189.854
189.85
189.844
189.838
189.832
189.825
189.819
189.869
189.868
189.866
189.863
189.858
189.853
189.847
189.841
189.835
189.83
189.809
189.807
189.804
189.8
189.795
189.789
189.783
189.775
189.768
189.761
189.674
189.672
189.668
189.661
189.652
189.641
189.628
189.614
189.599
189.584
189.535
189.525
189.505
189.477
189.439
189.391
189.334
189.269
189.196
189.115
192.009
191.971
191.894
191.776
191.614
191.407
191.149
190.835
190.46
190.013
129.899
129.897
129.892
129.885
129.875
129.863
129.848
129.83
129.81
129.788
129.892
129.89
129.885
129.878
129.867
129.854
129.839
129.82
129.799
129.777
129.895
129.893
129.888
129.88
129.87
129.857
129.842
129.823
129.802
129.781
129.878
129.875
129.87
129.863
129.853
129.84
129.824
129.805
129.784
129.762
129.898
129.895
129.89
129.883
129.873
129.859
129.844
129.825
129.804
129.783
129.873
129.87
129.865
129.858
129.848
129.835
129.819
129.8
129.779
129.757
129.847
129.844
129.839
129.831
129.821
129.807
129.791
129.772
129.75
129.727
129.747
129.743
129.737
129.727
129.714
129.697
129.676
129.652
129.626
129.597
129.67
129.662
129.646
129.622
129.589
129.549
129.499
129.442
129.377
129.306
131.053
131.02
130.955
130.856
130.72
130.546
130.331
130.071
129.761
129.398
49.9518
49.9493
49.9441
49.9355
49.9225
49.9034
49.8759
49.836
49.7782
49.6938
49.9459
49.9434
49.938
49.9291
49.9156
49.8959
49.8675
49.8267
49.7676
49.6819
49.944
49.9415
49.9361
49.9273
49.9138
49.8941
49.8657
49.8248
49.7657
49.6799
49.9505
49.9478
49.9421
49.933
49.9194
49.8997
49.8712
49.8304
49.7714
49.6857
49.9407
49.9382
49.933
49.9242
49.9108
49.8912
49.8628
49.8219
49.7628
49.677
49.9437
49.941
49.9355
49.9265
49.9129
49.8932
49.8647
49.8238
49.7647
49.679
49.9297
49.9271
49.9216
49.9126
49.8989
49.8791
49.8505
49.8093
49.75
49.664
49.9003
49.8974
49.8914
49.8815
49.8669
49.8459
49.8159
49.7732
49.7121
49.6242
49.8618
49.8573
49.848
49.8333
49.8119
49.7824
49.7421
49.6875
49.6128
49.5096
50.2986
50.2831
50.2518
50.2032
50.1353
50.0453
49.9289
49.7808
49.5934
49.3566
51.9436
51.895
51.7918
51.6207
51.3608
50.9811
50.4395
49.6827
48.6514
47.3034
52.1111
52.0581
51.9449
51.7561
51.4659
51.0352
50.4062
49.4944
48.1733
46.2446
52.2699
52.2128
52.0903
51.8844
51.5645
51.0831
50.3674
49.3053
47.7199
45.3206
52.4197
52.3595
52.2301
52.0117
51.6708
51.1549
50.3841
49.2368
47.5274
44.9708
52.559
52.4973
52.3647
52.1405
51.7904
51.2613
50.4731
49.3071
47.5882
45.0601
52.6853
52.6238
52.4913
52.2678
51.9194
51.3948
50.6177
49.4768
47.8108
45.3878
52.7948
52.7345
52.6048
52.3862
52.0467
51.5375
50.7871
49.6916
48.101
45.7988
52.8827
52.8242
52.6983
52.4866
52.1586
51.6685
50.9491
49.9027
48.3873
46.1949
52.9444
52.8875
52.7651
52.5596
52.242
51.7688
51.0763
50.0721
48.6211
46.5233
52.9763
52.9202
52.7999
52.5981
52.2867
51.8238
51.1479
50.1704
48.764
46.7476
136.82
136.79
136.727
136.626
136.478
136.282
136.05
135.838
135.801
136.345
137.417
137.385
137.317
137.203
137.029
136.775
136.424
135.953
135.335
134.49
137.978
137.944
137.87
137.742
137.535
137.215
136.731
135.999
134.874
133.067
138.501
138.467
138.39
138.255
138.031
137.676
137.126
136.283
134.995
133.02
138.98
138.948
138.875
138.745
138.529
138.183
137.648
136.841
135.647
133.913
139.406
139.379
139.317
139.204
139.014
138.712
138.248
137.562
136.578
135.212
139.769
139.749
139.701
139.611
139.459
139.216
138.845
138.306
137.547
136.523
140.056
140.042
140.008
139.943
139.829
139.644
139.363
138.955
138.385
137.618
140.255
140.247
140.224
140.178
140.094
139.956
139.744
139.434
138.999
138.406
140.357
140.352
140.335
140.3
140.234
140.122
139.949
139.695
139.341
138.872
202.617
202.685
202.822
203.028
203.312
203.689
204.194
204.911
206.027
207.973
203.733
203.811
203.968
204.201
204.514
204.907
205.391
205.98
206.683
207.457
204.784
204.873
205.049
205.308
205.645
206.052
206.512
206.989
207.397
207.528
205.76
205.86
206.058
206.35
206.727
207.177
207.679
208.191
208.638
208.874
206.645
206.759
206.984
207.318
207.755
208.288
208.905
209.588
210.309
211.024
207.425
207.553
207.808
208.191
208.7
209.339
210.112
211.028
212.105
213.376
208.079
208.221
208.506
208.937
209.52
210.265
211.193
212.333
213.73
215.455
208.589
208.744
209.054
209.527
210.171
211.007
212.061
213.374
214.998
217.004
208.939
209.103
209.432
209.934
210.624
211.523
212.664
214.086
215.838
217.968
209.117
209.285
209.624
210.143
210.858
211.792
212.978
214.454
216.26
218.438
247.814
247.976
248.302
248.794
249.457
250.3
251.342
252.623
254.228
256.359
249.402
249.588
249.961
250.523
251.277
252.23
253.387
254.756
256.326
258.031
250.903
251.114
251.536
252.173
253.027
254.103
255.403
256.922
258.623
260.403
252.295
252.532
253.007
253.724
254.691
255.915
257.407
259.175
261.212
263.486
253.555
253.818
254.347
255.149
256.237
257.63
259.354
261.444
263.941
266.895
254.657
254.945
255.525
256.409
257.616
259.177
261.135
263.552
266.51
270.119
255.574
255.884
256.509
257.464
258.775
260.481
262.638
265.323
268.638
272.718
256.285
256.611
257.271
258.281
259.671
261.486
263.785
266.648
270.172
274.477
256.769
257.107
257.79
258.837
260.28
262.164
264.548
267.502
271.101
275.413
257.014
257.357
258.052
259.119
260.59
262.51
264.934
267.921
271.519
275.75
270.851
271.066
271.495
272.139
272.999
274.072
275.357
276.848
278.542
280.446
272.715
272.962
273.454
274.195
275.186
276.426
277.915
279.643
281.574
283.61
274.483
274.763
275.325
276.172
277.311
278.749
280.496
282.558
284.928
287.568
276.124
276.439
277.073
278.033
279.332
280.989
283.03
285.489
288.404
291.812
277.608
277.958
278.662
279.735
281.195
283.077
285.425
288.304
291.798
296.01
278.902
279.283
280.053
281.227
282.836
284.924
287.554
290.815
294.824
299.735
279.977
280.384
281.207
282.466
284.196
286.45
289.301
292.85
297.225
302.594
280.805
281.232
282.095
283.417
285.235
287.605
290.602
294.323
298.881
304.416
281.369
281.808
282.697
284.059
285.932
288.372
291.448
295.24
299.826
305.278
281.653
282.098
283
284.383
286.285
288.759
291.869
295.676
300.219
305.492
270.834
271.049
271.478
272.123
272.982
274.056
275.342
276.835
278.532
280.443
272.702
272.948
273.441
274.182
275.173
276.413
277.903
279.631
281.565
283.604
274.471
274.751
275.312
276.16
277.299
278.737
280.484
282.546
284.917
287.556
276.113
276.428
277.062
278.022
279.321
280.977
283.018
285.477
288.391
291.798
277.598
277.947
278.652
279.724
281.185
283.066
285.414
288.293
291.785
295.996
278.893
279.274
280.043
281.217
282.826
284.913
287.543
290.804
294.812
299.722
279.968
280.375
281.198
282.457
284.186
286.439
289.29
292.839
297.214
302.582
280.797
281.224
282.086
283.408
285.225
287.595
290.592
294.313
298.872
304.406
281.361
281.8
282.688
284.05
285.923
288.363
291.439
295.231
299.818
305.27
281.645
282.09
282.992
284.374
286.276
288.75
291.86
295.667
300.212
305.485
247.773
247.936
248.261
248.753
249.416
250.26
251.304
252.589
254.202
256.349
249.364
249.55
249.923
250.485
251.24
252.193
253.351
254.722
256.297
258.008
250.868
251.079
251.502
252.138
252.993
254.068
255.369
256.887
258.589
260.367
252.264
252.5
252.975
253.693
254.659
255.883
257.374
259.141
261.177
263.447
253.527
253.789
254.318
255.12
256.208
257.599
259.322
261.411
263.906
266.856
254.631
254.918
255.498
256.382
257.588
259.148
261.105
263.521
266.477
270.083
255.55
255.859
256.484
257.438
258.748
260.453
262.609
265.293
268.608
272.687
256.262
256.588
257.247
258.256
259.646
261.459
263.758
266.621
270.146
274.45
256.747
257.084
257.767
258.813
260.255
262.138
264.522
267.478
271.077
275.39
256.992
257.335
258.029
259.095
260.565
262.485
264.91
267.898
271.498
275.728
202.555
202.622
202.758
202.964
203.247
203.623
204.129
204.85
205.974
207.94
203.679
203.757
203.913
204.146
204.458
204.851
205.335
205.925
206.633
207.413
204.736
204.824
205
205.259
205.596
206.002
206.46
206.937
207.345
207.473
205.717
205.816
206.014
206.306
206.682
207.131
207.631
208.142
208.586
208.818
206.606
206.72
206.945
207.278
207.714
208.245
208.861
209.543
210.261
210.972
207.389
207.517
207.772
208.154
208.662
209.299
210.07
210.986
212.061
213.33
208.046
208.188
208.473
208.903
209.484
210.227
211.154
212.294
213.691
215.414
208.559
208.713
209.023
209.494
210.137
210.971
212.025
213.338
214.963
216.969
208.911
209.074
209.402
209.903
210.591
211.489
212.63
214.054
215.807
217.937
209.09
209.257
209.594
210.112
210.826
211.759
212.946
214.424
216.232
218.409
136.76
136.729
136.665
136.56
136.409
136.209
135.974
135.759
135.723
136.277
137.363
137.331
137.263
137.147
136.97
136.714
136.36
135.888
135.27
134.428
137.932
137.898
137.823
137.693
137.485
137.163
136.677
135.943
134.816
133.007
138.46
138.426
138.349
138.213
137.988
137.631
137.079
136.235
134.945
132.968
138.944
138.912
138.839
138.708
138.49
138.143
137.607
136.799
135.603
133.869
139.374
139.347
139.285
139.171
138.98
138.676
138.211
137.524
136.54
135.174
139.741
139.72
139.671
139.581
139.427
139.182
138.811
138.271
137.513
136.488
140.03
140.016
139.981
139.915
139.799
139.613
139.332
138.924
138.355
137.587
140.231
140.222
140.198
140.151
140.066
139.927
139.715
139.406
138.972
138.378
140.334
140.327
140.31
140.273
140.206
140.095
139.922
139.67
139.316
138.846
51.9139
51.8644
51.7593
51.5853
51.3209
50.9352
50.3861
49.6205
48.5803
47.2264
52.086
52.0324
51.9182
51.7276
51.4347
51.0004
50.3672
49.4512
48.127
46.1983
52.2487
52.1912
52.0681
51.8611
51.5397
51.0562
50.3383
49.2742
47.6882
45.2908
52.4015
52.3412
52.2115
51.9924
51.6505
51.1334
50.3613
49.2133
47.5044
44.9502
52.5434
52.4817
52.3488
52.1242
51.7734
51.2433
50.4543
49.2882
47.5702
45.0442
52.6719
52.6103
52.4777
52.2537
51.9047
51.3793
50.6016
49.4607
47.7955
45.3738
52.783
52.7227
52.5928
52.3737
52.0335
51.5236
50.7727
49.6774
48.0876
45.7859
52.8722
52.8136
52.6874
52.4751
52.1465
51.6557
50.936
49.89
48.3755
46.1833
52.9347
52.8777
52.7549
52.5488
52.2305
51.7568
51.0644
50.0608
48.6107
46.5129
52.9669
52.9107
52.7899
52.5875
52.2756
51.8124
51.1369
50.1603
48.7548
46.7379
49.9955
49.9954
49.9954
49.9954
49.9953
49.9953
49.9952
49.9951
49.995
49.9949
49.9959
49.9959
49.9959
49.9958
49.9958
49.9957
49.9956
49.9955
49.9954
49.9953
49.9968
49.9968
49.9968
49.9968
49.9967
49.9967
49.9966
49.9965
49.9963
49.9962
49.9984
49.9984
49.9984
49.9984
49.9984
49.9983
49.9982
49.9981
49.9979
49.9978
50.0008
50.0009
50.001
50.001
50.001
50.001
50.0009
50.0007
50.0005
50.0003
50.0045
50.0048
50.005
50.0051
50.0052
50.0051
50.005
50.0049
50.0046
50.0042
50.0102
50.0107
50.0112
50.0115
50.0117
50.0117
50.0117
50.0114
50.0111
50.0105
50.019
50.02
50.0209
50.0216
50.0221
50.0223
50.0223
50.022
50.0215
50.0207
50.0327
50.0347
50.0365
50.0379
50.0389
50.0396
50.0397
50.0394
50.0387
50.0375
50.0546
50.0587
50.0622
50.065
50.0672
50.0685
50.069
50.0688
50.0677
50.0658
129.986
129.986
129.986
129.986
129.986
129.986
129.985
129.985
129.985
129.985
129.987
129.987
129.987
129.987
129.986
129.986
129.986
129.986
129.986
129.985
129.988
129.988
129.988
129.988
129.988
129.988
129.987
129.987
129.987
129.987
129.99
129.99
129.99
129.99
129.99
129.99
129.99
129.989
129.989
129.989
129.994
129.994
129.994
129.994
129.993
129.993
129.993
129.993
129.992
129.992
129.998
129.998
129.998
129.998
129.998
129.998
129.997
129.997
129.997
129.996
130.004
130.004
130.004
130.004
130.004
130.004
130.004
130.003
130.003
130.002
130.011
130.012
130.012
130.012
130.012
130.012
130.012
130.011
130.01
130.01
130.021
130.022
130.023
130.023
130.023
130.023
130.023
130.022
130.021
130.02
130.033
130.035
130.036
130.036
130.037
130.037
130.036
130.036
130.035
130.033
189.975
189.975
189.975
189.974
189.974
189.974
189.974
189.974
189.973
189.973
189.975
189.975
189.975
189.975
189.975
189.975
189.974
189.974
189.974
189.974
189.976
189.976
189.976
189.976
189.976
189.976
189.975
189.975
189.975
189.975
189.978
189.978
189.978
189.978
189.977
189.977
189.977
189.977
189.976
189.976
189.98
189.98
189.98
189.98
189.98
189.98
189.979
189.979
189.979
189.978
189.983
189.983
189.983
189.983
189.983
189.982
189.982
189.982
189.981
189.981
189.987
189.987
189.987
189.987
189.987
189.986
189.986
189.985
189.985
189.984
189.992
189.992
189.992
189.991
189.991
189.991
189.991
189.99
189.989
189.989
189.997
189.997
189.997
189.997
189.997
189.996
189.996
189.995
189.995
189.994
190.004
190.004
190.004
190.004
190.004
190.003
190.003
190.002
190.001
190
229.963
229.962
229.962
229.962
229.962
229.962
229.962
229.962
229.961
229.961
229.963
229.963
229.963
229.963
229.962
229.962
229.962
229.962
229.962
229.962
229.963
229.963
229.963
229.963
229.963
229.963
229.963
229.963
229.962
229.962
229.964
229.964
229.964
229.964
229.964
229.964
229.964
229.963
229.963
229.963
229.966
229.966
229.965
229.965
229.965
229.965
229.965
229.965
229.964
229.964
229.967
229.967
229.967
229.967
229.967
229.967
229.966
229.966
229.966
229.966
229.969
229.969
229.969
229.969
229.969
229.969
229.968
229.968
229.968
229.967
229.972
229.971
229.971
229.971
229.971
229.971
229.97
229.97
229.97
229.969
229.974
229.974
229.974
229.974
229.974
229.974
229.973
229.973
229.973
229.972
229.977
229.977
229.977
229.976
229.976
229.976
229.976
229.975
229.975
229.974
249.952
249.952
249.952
249.952
249.951
249.951
249.951
249.951
249.951
249.951
249.952
249.952
249.952
249.952
249.952
249.952
249.951
249.951
249.951
249.951
249.952
249.952
249.952
249.952
249.952
249.952
249.952
249.952
249.952
249.951
249.952
249.952
249.952
249.952
249.952
249.952
249.952
249.952
249.952
249.952
249.953
249.953
249.953
249.953
249.952
249.952
249.952
249.952
249.952
249.952
249.953
249.953
249.953
249.953
249.953
249.953
249.953
249.953
249.953
249.953
249.954
249.954
249.954
249.954
249.954
249.953
249.953
249.953
249.953
249.953
249.954
249.954
249.954
249.954
249.954
249.954
249.954
249.954
249.954
249.954
249.955
249.955
249.955
249.955
249.955
249.955
249.955
249.955
249.954
249.954
249.957
249.957
249.957
249.956
249.956
249.956
249.956
249.956
249.956
249.956
249.944
249.944
249.944
249.944
249.944
249.944
249.944
249.944
249.944
249.945
249.944
249.944
249.944
249.944
249.944
249.944
249.944
249.944
249.944
249.944
249.944
249.944
249.944
249.944
249.944
249.944
249.944
249.944
249.944
249.944
249.943
249.943
249.944
249.944
249.944
249.944
249.944
249.944
249.944
249.944
249.943
249.943
249.943
249.943
249.943
249.943
249.943
249.943
249.944
249.944
249.943
249.943
249.943
249.943
249.943
249.943
249.943
249.943
249.943
249.943
249.942
249.942
249.942
249.942
249.942
249.942
249.942
249.942
249.943
249.943
249.941
249.941
249.941
249.941
249.941
249.942
249.942
249.942
249.942
249.942
249.94
249.941
249.941
249.941
249.941
249.941
249.941
249.941
249.941
249.941
249.939
249.939
249.939
249.939
249.939
249.939
249.94
249.94
249.94
249.94
229.942
229.942
229.942
229.942
229.942
229.942
229.942
229.942
229.943
229.943
229.941
229.941
229.941
229.942
229.942
229.942
229.942
229.942
229.942
229.943
229.941
229.941
229.941
229.941
229.941
229.941
229.941
229.942
229.942
229.942
229.94
229.94
229.94
229.94
229.94
229.94
229.94
229.941
229.941
229.941
229.938
229.938
229.939
229.939
229.939
229.939
229.939
229.939
229.94
229.94
229.937
229.937
229.937
229.937
229.937
229.937
229.938
229.938
229.938
229.938
229.935
229.935
229.935
229.935
229.935
229.936
229.936
229.936
229.936
229.937
229.932
229.933
229.933
229.933
229.933
229.933
229.934
229.934
229.934
229.935
229.93
229.93
229.93
229.93
229.93
229.93
229.931
229.931
229.932
229.932
229.927
229.927
229.927
229.928
229.928
229.928
229.928
229.929
229.929
229.93
189.946
189.946
189.946
189.946
189.947
189.947
189.947
189.947
189.947
189.948
189.945
189.946
189.946