/*--------------------------------*- C++ -*----------------------------------*\
| =========                 |                                                 |
| \\      /  F ield         | OpenFOAM: The Open Source CFD Toolbox           |
|  \\    /   O peration     | Version:  2.4.0                                 |
|   \\  /    A nd           | Web:      www.OpenFOAM.org                      |
|    \\/     M anipulation  |                                                 |
\*---------------------------------------------------------------------------*/
FoamFile
{
    version     2.0;
    format      ascii;
    class       volScalarField;
    location    "0.005";
    object      rho;
}
// * * * * * * * * * * * * * * * * * * * * * * * * * * * * * * * * * * * * * //

dimensions      [0 -3 1 0 0 1 0];

internalField   nonuniform List<scalar> 
9000
(
2.22572e-58
4.51163e-55
5.94814e-52
5.99181e-49
4.6223e-46
2.63303e-43
1.05396e-40
2.79738e-38
4.59415e-36
4.20287e-34
4.02387e-54
7.57502e-51
9.0432e-48
8.08661e-45
5.45729e-42
2.69267e-39
9.2848e-37
2.12047e-34
3.00284e-32
2.38819e-30
3.42905e-50
5.96462e-47
6.40527e-44
5.04442e-41
2.95132e-38
1.24885e-35
3.66996e-33
7.1299e-31
8.61192e-29
5.87638e-27
1.80811e-46
2.88369e-43
2.75814e-40
1.89108e-37
9.46986e-35
3.389e-32
8.36129e-30
1.35995e-27
1.37767e-25
7.93469e-24
6.53711e-43
9.46216e-40
7.95612e-37
4.67792e-34
1.97176e-31
5.86053e-29
1.19046e-26
1.5876e-24
1.31948e-22
6.27174e-21
1.7037e-39
2.2103e-36
1.60786e-33
7.95762e-31
2.76555e-28
6.67491e-26
1.08952e-23
1.1606e-21
7.69721e-20
2.93469e-18
3.28919e-36
3.77023e-33
2.32909e-30
9.49329e-28
2.65432e-25
5.06352e-23
6.44787e-21
5.31294e-19
2.71642e-17
8.01692e-16
4.78009e-33
4.76767e-30
2.45092e-27
8.02788e-25
1.75554e-22
2.56418e-20
2.4587e-18
1.50671e-16
5.68814e-15
1.24187e-13
5.28504e-30
4.52086e-27
1.89473e-24
4.85875e-22
8.05349e-20
8.68308e-18
6.01066e-16
2.60994e-14
6.88402e-13
1.04655e-11
4.48417e-27
3.25371e-24
1.09173e-21
2.13636e-19
2.59665e-17
1.9839e-15
9.43541e-14
2.73392e-12
4.68237e-11
4.54287e-10
8.56881e-60
1.46841e-56
1.45061e-53
1.04312e-50
5.80601e-48
2.52404e-45
8.48327e-43
2.10433e-40
3.43e-38
2.66032e-36
7.62285e-56
1.23349e-52
1.13212e-49
7.46367e-47
3.77028e-44
1.47709e-41
4.43105e-39
9.80038e-37
1.42884e-34
9.97953e-33
3.22616e-52
4.9116e-49
4.16986e-46
2.50751e-43
1.14307e-40
4.01099e-38
1.07147e-35
2.09619e-33
2.71029e-31
1.6894e-29
8.56644e-49
1.22093e-45
9.53019e-43
5.19162e-40
2.11977e-37
6.60944e-35
1.5611e-32
2.69063e-30
3.04926e-28
1.6758e-26
1.58811e-45
2.10574e-42
1.49982e-39
7.33829e-37
2.65887e-34
7.29476e-32
1.50812e-29
2.26864e-27
2.23727e-25
1.06716e-23
2.1689e-42
2.65575e-39
1.71056e-36
7.44077e-34
2.36597e-31
5.64505e-29
1.00935e-26
1.30954e-24
1.11084e-22
4.53393e-21
2.24852e-39
2.52155e-36
1.45382e-33
5.55672e-31
1.5307e-28
3.1328e-26
4.77719e-24
5.27352e-22
3.79624e-20
1.30211e-18
1.80054e-36
1.8331e-33
9.35673e-31
3.10172e-28
7.29421e-26
1.2604e-23
1.61268e-21
1.49165e-19
8.98017e-18
2.53086e-16
1.12486e-33
1.03083e-30
4.6059e-28
1.30589e-25
2.57914e-23
3.69422e-21
3.89079e-19
2.9635e-17
1.46957e-15
3.31103e-14
5.51195e-31
4.51454e-28
1.74727e-25
4.17753e-23
6.80651e-21
7.91085e-19
6.69886e-17
4.11657e-15
1.65726e-13
2.88442e-12
1.14981e-64
3.53833e-61
5.60983e-58
5.75958e-55
3.90782e-52
1.78108e-49
5.88116e-47
1.47549e-44
2.5726e-42
2.10612e-40
1.03215e-60
3.03151e-57
4.53627e-54
4.35293e-51
2.73887e-48
1.15127e-45
3.49535e-43
8.05783e-41
1.29322e-38
9.79248e-37
4.4594e-57
1.24706e-53
1.75601e-50
1.56936e-47
9.1201e-45
3.51949e-42
9.77511e-40
2.05915e-37
3.02363e-35
2.10397e-33
1.22405e-53
3.25612e-50
4.31509e-47
3.58215e-44
1.9127e-41
6.73649e-39
1.70039e-36
3.24955e-34
4.33175e-32
2.74702e-30
2.37513e-50
5.98906e-47
7.44469e-44
5.74095e-41
2.81923e-38
9.02168e-36
2.05279e-33
3.52739e-31
4.22758e-29
2.41827e-27
3.44523e-47
8.20389e-44
9.53297e-41
6.81076e-38
3.065e-35
8.89373e-33
1.82087e-30
2.78323e-28
2.96413e-26
1.51035e-24
3.8555e-44
8.63514e-41
9.34898e-38
6.17601e-35
2.53892e-32
6.63871e-30
1.21406e-27
1.64878e-25
1.53873e-23
6.87907e-22
3.38883e-41
7.10879e-38
7.1488e-35
4.36371e-32
1.63513e-29
3.82787e-27
6.19565e-25
7.40309e-23
6.02367e-21
2.31968e-19
2.36079e-38
4.61758e-35
4.30025e-32
2.42913e-29
8.29473e-27
1.72744e-24
2.44957e-22
2.5475e-20
1.78871e-18
5.83542e-17
1.30678e-35
2.37127e-32
2.03746e-29
1.07055e-26
3.34243e-24
6.15626e-22
7.56193e-20
6.76164e-18
3.88994e-16
9.81855e-15
1.85921e-69
6.15909e-66
1.11e-62
1.34723e-59
1.06674e-56
5.62398e-54
2.05265e-51
5.62833e-49
1.02815e-46
8.43334e-45
2.11088e-65
6.71951e-62
1.15625e-58
1.3322e-55
9.96838e-53
4.95083e-50
1.69909e-47
4.37871e-45
7.5247e-43
5.8256e-41
1.1592e-61
3.53871e-58
5.80024e-55
6.32696e-52
4.46032e-49
2.07974e-46
6.68599e-44
1.61267e-41
2.59514e-39
1.88691e-37
4.10365e-58
1.19858e-54
1.86621e-51
1.92107e-48
1.27126e-45
5.54196e-43
1.66125e-40
3.73117e-38
5.5911e-36
3.7948e-34
1.05331e-54
2.93582e-51
4.32849e-48
4.18918e-45
2.59096e-42
1.05086e-39
2.92106e-37
6.07203e-35
8.41603e-33
5.29342e-31
2.0912e-51
5.54602e-48
7.71503e-45
6.98999e-42
4.02054e-39
1.50852e-36
3.86356e-34
7.37989e-32
9.38638e-30
5.4237e-28
3.34719e-48
8.41897e-45
1.10055e-41
9.28952e-39
4.94107e-36
1.70391e-33
3.99134e-31
6.7187e-29
7.47806e-27
3.80035e-25
4.383e-45
1.04366e-41
1.28281e-38
1.0108e-35
4.9103e-33
1.46556e-30
2.98447e-28
4.37657e-26
4.24106e-24
1.87148e-22
4.77415e-42
1.07073e-38
1.19961e-35
8.41258e-33
3.61641e-30
9.45787e-28
1.6725e-25
2.12044e-23
1.76516e-21
6.63646e-20
4.03945e-39
8.35721e-36
8.48893e-33
5.35677e-30
2.0512e-27
4.71835e-25
7.24777e-23
7.82364e-21
5.46826e-19
1.70207e-17
2.29683e-73
7.86255e-70
1.46057e-66
1.82751e-63
1.49057e-60
8.04676e-58
3.01746e-55
8.46433e-53
1.58319e-50
1.32898e-48
3.01721e-69
9.94502e-66
1.76773e-62
2.10545e-59
1.62766e-56
8.29146e-54
2.93156e-51
7.7412e-49
1.36503e-46
1.0847e-44
1.9386e-65
6.14252e-62
1.04286e-58
1.18009e-55
8.6284e-53
4.13625e-50
1.37485e-47
3.40505e-45
5.63713e-43
4.22138e-41
8.03991e-62
2.44395e-58
3.95353e-55
4.23874e-52
2.92195e-49
1.31266e-46
4.08378e-44
9.43378e-42
1.45737e-39
1.02182e-37
2.40126e-58
6.98606e-55
1.07352e-51
1.08663e-48
7.03264e-46
2.94385e-43
8.52075e-41
1.82171e-38
2.60373e-36
1.6939e-34
5.46942e-55
1.51876e-51
2.20864e-48
2.10138e-45
1.27009e-42
4.91599e-40
1.31318e-37
2.57004e-35
3.35696e-33
2.00011e-31
9.82073e-52
2.59448e-48
3.55419e-45
3.16109e-42
1.77216e-39
6.27478e-37
1.52953e-34
2.6944e-32
3.15356e-30
1.68416e-28
1.41458e-48
3.54186e-45
4.54338e-42
3.75016e-39
1.932e-36
6.15272e-34
1.3441e-31
2.11052e-29
2.19313e-27
1.03646e-25
1.64773e-45
3.8884e-42
4.61981e-39
3.4878e-36
1.63226e-33
4.68319e-31
9.15067e-29
1.27142e-26
1.16017e-24
4.7865e-23
1.54071e-42
3.40043e-39
3.7301e-36
2.57962e-33
1.09689e-30
2.83603e-28
4.95931e-26
6.06083e-24
4.81079e-22
1.71513e-20
3.6234e-77
1.27532e-73
2.42433e-70
3.09522e-67
2.56929e-64
1.40567e-61
5.3477e-59
1.51973e-56
2.88516e-54
2.46224e-52
5.10448e-73
1.73273e-69
3.1573e-66
3.84515e-63
3.03219e-60
1.56829e-57
5.63848e-55
1.5113e-52
2.71063e-50
2.19519e-48
3.53464e-69
1.15547e-65
2.01486e-62
2.3367e-59
1.74729e-56
8.52163e-54
2.88773e-51
7.27448e-49
1.22772e-46
9.3937e-45
1.58693e-65
4.98655e-62
8.30237e-59
9.14601e-56
6.46658e-53
2.96215e-50
9.42191e-48
2.2188e-45
3.50266e-43
2.51581e-41
5.14765e-62
1.55139e-58
2.45918e-55
2.56483e-52
1.70813e-49
7.30974e-47
2.17002e-44
4.74231e-42
6.94487e-40
4.64114e-38
1.27539e-58
3.67704e-55
5.52953e-52
5.43747e-49
3.39454e-46
1.34785e-43
3.70699e-41
7.44686e-39
1.00069e-36
6.14749e-35
2.491e-55
6.8493e-52
9.72922e-49
8.97443e-46
5.22104e-43
1.90786e-40
4.81695e-38
8.79707e-36
1.07059e-33
5.95419e-32
3.90525e-52
1.0204e-48
1.36202e-45
1.17124e-42
6.30724e-40
2.10433e-37
4.83122e-35
7.96504e-33
8.7111e-31
4.34156e-29
4.96841e-49
1.22837e-45
1.53185e-42
1.21976e-39
6.04622e-37
1.84457e-34
3.85097e-32
5.70846e-30
5.57272e-28
2.46872e-26
5.17493e-46
1.20602e-42
1.40424e-39
1.03745e-36
4.74174e-34
1.32592e-31
2.52541e-29
3.3672e-27
2.93045e-25
1.15284e-23
5.3213e-81
1.92459e-77
3.74729e-74
4.88982e-71
4.14024e-68
2.30418e-65
8.91974e-63
2.57752e-60
4.98244e-58
4.3342e-56
7.89714e-77
2.75857e-73
5.15603e-70
6.42849e-67
5.18026e-64
2.7299e-61
1.00062e-58
2.73203e-56
4.99924e-54
4.136e-52
5.78879e-73
1.95025e-69
3.49377e-66
4.15538e-63
3.18135e-60
1.58355e-57
5.48186e-55
1.40933e-52
2.43161e-50
1.905e-48
2.76401e-69
8.96546e-66
1.53608e-62
1.7387e-59
1.26132e-56
5.90796e-54
1.92393e-51
4.63344e-49
7.49413e-47
5.52471e-45
9.57511e-66
2.98403e-62
4.87634e-59
5.23664e-56
3.58686e-53
1.57313e-50
4.79351e-48
1.07406e-45
1.61583e-43
1.11137e-41
2.54275e-62
7.59509e-59
1.17986e-55
1.19747e-52
7.71059e-50
3.14756e-47
8.91499e-45
1.84313e-42
2.5542e-40
1.62112e-38
5.34188e-59
1.52497e-55
2.2432e-52
2.14191e-49
1.29001e-46
4.87048e-44
1.27282e-41
2.40749e-39
3.04187e-37
1.75971e-35
9.05278e-56
2.46202e-52
3.41473e-49
3.05254e-46
1.71096e-43
5.94813e-41
1.42595e-38
2.4551e-36
2.81112e-34
1.47042e-32
1.25689e-52
3.24568e-49
4.22978e-46
3.52725e-43
1.83482e-40
5.88727e-38
1.29691e-35
2.02966e-33
2.09858e-31
9.88237e-30
1.46133e-49
3.57554e-46
4.38196e-43
3.41904e-40
1.65595e-37
4.92459e-35
1.00208e-32
1.43148e-30
1.34117e-28
5.70935e-27
7.1273e-85
2.64722e-81
5.28214e-78
7.05361e-75
6.10347e-72
3.46524e-69
1.36853e-66
4.03331e-64
7.95952e-62
7.07282e-60
1.10386e-80
3.96494e-77
7.60498e-74
9.71772e-71
8.01566e-68
4.31597e-65
1.6168e-62
4.5103e-60
8.44223e-58
7.15009e-56
8.48323e-77
2.94288e-73
5.41778e-70
6.6144e-67
5.19233e-64
2.64507e-61
9.37553e-59
2.46728e-56
4.36331e-54
3.50727e-52
4.26565e-73
1.42681e-69
2.51599e-66
2.92819e-63
2.18208e-60
1.04789e-57
3.50109e-55
8.64853e-53
1.43693e-50
1.08949e-48
1.5628e-69
5.03037e-66
8.47432e-63
9.37431e-60
6.60945e-57
2.97823e-54
9.3323e-52
2.15004e-49
3.33132e-47
2.36306e-45
4.40695e-66
1.36193e-62
2.18507e-59
2.2892e-56
1.52095e-53
6.39621e-51
1.86837e-48
3.98464e-46
5.70672e-44
3.74874e-42
9.87345e-63
2.92187e-59
4.44869e-56
4.39589e-53
2.74004e-50
1.06987e-47
2.89517e-45
5.67519e-43
7.44773e-41
4.48264e-39
1.79476e-59
5.07131e-56
7.3012e-53
6.77744e-50
3.94758e-47
1.42724e-44
3.56424e-42
6.39787e-40
7.65643e-38
4.19517e-36
2.70099e-56
7.2675e-53
9.87129e-50
8.59102e-47
4.67009e-44
1.5683e-41
3.62469e-39
5.95991e-37
6.49477e-35
3.23367e-33
3.48801e-53
8.92597e-50
1.14577e-46
9.38379e-44
4.78095e-41
1.4993e-38
3.22779e-36
4.89266e-34
4.88515e-32
2.22553e-30
8.70841e-89
3.31918e-85
6.78791e-82
9.28221e-79
8.21757e-76
4.76813e-73
1.92435e-70
5.79541e-68
1.16951e-65
1.06287e-63
1.39891e-84
5.16263e-81
1.01618e-77
1.33156e-74
1.12542e-71
6.20252e-69
2.37849e-66
6.79225e-64
1.30258e-61
1.1307e-59
1.1201e-80
3.99749e-77
7.5625e-74
9.48188e-71
7.63902e-68
3.98964e-65
1.45021e-62
3.91413e-60
7.10666e-58
5.86794e-56
5.89407e-77
2.03103e-73
3.68565e-70
4.41216e-67
3.38019e-64
1.66715e-61
5.72337e-59
1.453e-56
2.4841e-54
1.93947e-52
2.26942e-73
7.53666e-70
1.30864e-66
1.49159e-63
1.08322e-60
5.0231e-58
1.62084e-55
3.84681e-53
6.14879e-51
4.5037e-49
6.75359e-70
2.15685e-66
3.57288e-63
3.86422e-60
2.65019e-57
1.14972e-54
3.46732e-52
7.63969e-50
1.13227e-47
7.70576e-46
1.60367e-66
4.91303e-63
7.73872e-60
7.91195e-57
5.10374e-54
2.06209e-51
5.7803e-49
1.17495e-46
1.60212e-44
1.00335e-42
3.10603e-63
9.10421e-60
1.35929e-56
1.30917e-53
7.91677e-51
2.97375e-48
7.72626e-46
1.44471e-43
1.80523e-41
1.03476e-39
5.02593e-60
1.40621e-56
1.98686e-53
1.80066e-50
1.02038e-47
3.57634e-45
8.64377e-43
1.4889e-40
1.70474e-38
8.94089e-37
7.14855e-57
1.90776e-53
2.55647e-50
2.18925e-47
1.16817e-44
3.84364e-42
8.70439e-40
1.39175e-37
1.47138e-35
7.12161e-34
9.70813e-93
3.79414e-89
7.95106e-86
1.11367e-82
1.00931e-79
5.99138e-77
2.47337e-74
7.61974e-72
1.57364e-69
1.46328e-67
1.61019e-88
6.10021e-85
1.23193e-81
1.65563e-78
1.43454e-75
8.10073e-73
3.18273e-70
9.31391e-68
1.83147e-65
1.63003e-63
1.33753e-84
4.90626e-81
9.53532e-78
1.22792e-74
1.01572e-71
5.44423e-69
2.03118e-66
5.62861e-64
1.05006e-61
8.90973e-60
7.3357e-81
2.60154e-77
4.85674e-74
5.9807e-71
4.71218e-68
2.38941e-65
8.43565e-63
2.20338e-60
3.87941e-58
3.12021e-56
2.95721e-77
1.01216e-73
1.81077e-70
2.12659e-67
1.59118e-64
7.6007e-62
2.52754e-59
6.18619e-57
1.02091e-54
7.72449e-53
9.25409e-74
3.05062e-70
5.21528e-67
5.82241e-64
4.12242e-61
1.84629e-58
5.75202e-56
1.31043e-53
2.01106e-51
1.41827e-49
2.3206e-70
7.35069e-67
1.19711e-63
1.26592e-60
8.44941e-58
3.53331e-55
1.02599e-52
2.16303e-50
3.06446e-48
1.99613e-46
4.76769e-67
1.44757e-63
2.23918e-60
2.23585e-57
1.4026e-54
5.46913e-52
1.47682e-49
2.87436e-47
3.74652e-45
2.24341e-43
8.23085e-64
2.39042e-60
3.50758e-57
3.3046e-54
1.94851e-51
7.11316e-49
1.79351e-46
3.22913e-44
3.8748e-42
2.13407e-40
1.26965e-60
3.52527e-57
4.91907e-54
4.39232e-51
2.44694e-48
8.4175e-46
1.99707e-43
3.35379e-41
3.73639e-39
1.91072e-37
2.94407e-24
1.80528e-21
4.79001e-19
6.99758e-17
6.04052e-15
3.13337e-13
9.68529e-12
1.74153e-10
1.75606e-09
9.49044e-09
3.90364e-24
2.28542e-21
5.79976e-19
8.12579e-17
6.75132e-15
3.38502e-13
1.01613e-11
1.78344e-10
1.76427e-09
9.40109e-09
3.91127e-24
2.28847e-21
5.80422e-19
8.12798e-17
6.75036e-15
3.38345e-13
1.01543e-11
1.78198e-10
1.76274e-09
9.39202e-09
3.90939e-24
2.28751e-21
5.80206e-19
8.12533e-17
6.74844e-15
3.38262e-13
1.01521e-11
1.78165e-10
1.76247e-09
9.39061e-09
3.90907e-24
2.28733e-21
5.80166e-19
8.12485e-17
6.7481e-15
3.38247e-13
1.01518e-11
1.7816e-10
1.76242e-09
9.39035e-09
3.90898e-24
2.2873e-21
5.80161e-19
8.1248e-17
6.74807e-15
3.38246e-13
1.01517e-11
1.78159e-10
1.76242e-09
9.39034e-09
3.90927e-24
2.28744e-21
5.80191e-19
8.12516e-17
6.74833e-15
3.38258e-13
1.0152e-11
1.78164e-10
1.76246e-09
9.39052e-09
3.91038e-24
2.28805e-21
5.80334e-19
8.12701e-17
6.74973e-15
3.38321e-13
1.01538e-11
1.78191e-10
1.76269e-09
9.39158e-09
3.90407e-24
2.28552e-21
5.79971e-19
8.12537e-17
6.75077e-15
3.38466e-13
1.016e-11
1.7832e-10
1.764e-09
9.39869e-09
3.04222e-24
1.85468e-21
4.89467e-19
7.11585e-17
6.11654e-15
3.16131e-13
9.74222e-12
1.74744e-10
1.75802e-09
9.48085e-09
2.12261e-28
1.54793e-25
5.14748e-23
1.02431e-20
1.35137e-18
1.2432e-16
8.20634e-15
3.96117e-13
1.28026e-11
1.64496e-10
2.46986e-28
1.70517e-25
5.37546e-23
1.01626e-20
1.27741e-18
1.12369e-16
7.12289e-15
3.31792e-13
1.15521e-11
1.55246e-10
2.41047e-28
1.66365e-25
5.24315e-23
9.91054e-21
1.24564e-18
1.09576e-16
6.94717e-15
3.23728e-13
1.12783e-11
1.5344e-10
2.39634e-28
1.65417e-25
5.21421e-23
9.85765e-21
1.23922e-18
1.09032e-16
6.91391e-15
3.22239e-13
1.12287e-11
1.53117e-10
2.39346e-28
1.65228e-25
5.20851e-23
9.84729e-21
1.23797e-18
1.08925e-16
6.90737e-15
3.21945e-13
1.12189e-11
1.53053e-10
2.3933e-28
1.65214e-25
5.20803e-23
9.84636e-21
1.23785e-18
1.08915e-16
6.90672e-15
3.21914e-13
1.12178e-11
1.53046e-10
2.39518e-28
1.65339e-25
5.21175e-23
9.8529e-21
1.23861e-18
1.08976e-16
6.91024e-15
3.22065e-13
1.12227e-11
1.5308e-10
2.40463e-28
1.65957e-25
5.23017e-23
9.88566e-21
1.24246e-18
1.0929e-16
6.92868e-15
3.22858e-13
1.12485e-11
1.53254e-10
2.44954e-28
1.68978e-25
5.32254e-23
1.00539e-20
1.26269e-18
1.1098e-16
7.02978e-15
3.27301e-13
1.13966e-11
1.54259e-10
2.12195e-28
1.509e-25
4.89495e-23
9.50614e-21
1.22467e-18
1.10122e-16
7.11644e-15
3.37228e-13
1.19388e-11
1.58409e-10
5.7311e-33
9.58957e-30
7.54527e-27
3.72899e-24
1.0752e-21
1.74336e-19
1.83092e-17
1.29761e-15
5.79601e-14
1.12047e-12
4.65314e-33
7.35271e-30
5.47005e-27
2.56131e-24
8.52733e-22
1.45571e-19
1.54104e-17
1.09876e-15
5.22921e-14
1.05824e-12
4.13994e-33
6.55169e-30
4.88219e-27
2.2903e-24
7.64119e-22
1.3567e-19
1.46057e-17
1.0513e-15
5.03965e-14
1.03498e-12
4.02722e-33
6.37773e-30
4.75573e-27
2.23247e-24
7.45382e-22
1.33608e-19
1.44414e-17
1.04181e-15
5.00235e-14
1.03029e-12
4.00454e-33
6.34209e-30
4.72959e-27
2.22045e-24
7.4141e-22
1.33176e-19
1.44073e-17
1.03985e-15
4.99462e-14
1.0293e-12
4.0016e-33
6.33807e-30
4.72683e-27
2.21921e-24
7.41064e-22
1.33138e-19
1.44042e-17
1.03967e-15
4.9939e-14
1.02921e-12
4.01383e-33
6.35599e-30
4.73944e-27
2.22491e-24
7.42874e-22
1.33342e-19
1.44205e-17
1.04061e-15
4.99754e-14
1.02969e-12
4.0706e-33
6.44298e-30
4.80233e-27
2.25367e-24
7.5235e-22
1.34407e-19
1.45059e-17
1.04551e-15
5.01667e-14
1.03215e-12
4.34034e-33
6.84884e-30
5.09158e-27
2.38456e-24
7.94977e-22
1.39354e-19
1.49133e-17
1.06939e-15
5.11031e-14
1.04361e-12
4.28933e-33
6.74281e-30
5.00576e-27
2.34859e-24
7.88092e-22
1.38415e-19
1.49642e-17
1.08278e-15
5.18533e-14
1.03974e-12
2.70917e-36
5.17325e-33
4.77126e-30
2.7115e-27
9.23252e-25
1.85998e-22
2.47252e-20
2.23507e-18
1.28676e-16
3.29982e-15
2.26314e-36
4.1063e-33
3.63716e-30
2.04463e-27
7.76549e-25
1.63035e-22
2.18031e-20
1.9845e-18
1.21564e-16
3.27586e-15
1.94449e-36
3.54331e-33
3.15672e-30
1.78781e-27
6.87057e-25
1.49709e-22
2.03875e-20
1.87666e-18
1.16054e-16
3.18149e-15
1.87203e-36
3.41603e-33
3.04899e-30
1.73065e-27
6.67209e-25
1.46725e-22
2.00714e-20
1.85277e-18
1.14834e-16
3.15901e-15
1.85683e-36
3.38959e-33
3.0266e-30
1.71875e-27
6.63067e-25
1.46106e-22
2.00061e-20
1.84784e-18
1.14581e-16
3.15427e-15
1.85509e-36
3.3863e-33
3.02384e-30
1.71731e-27
6.62568e-25
1.46027e-22
1.99976e-20
1.84719e-18
1.14547e-16
3.15359e-15
1.86278e-36
3.39973e-33
3.03498e-30
1.72313e-27
6.64591e-25
1.46342e-22
2.00314e-20
1.84976e-18
1.14679e-16
3.1562e-15
1.89832e-36
3.4611e-33
3.08654e-30
1.75044e-27
6.74129e-25
1.47798e-22
2.01866e-20
1.8615e-18
1.15277e-16
3.1674e-15
2.04828e-36
3.71943e-33
3.30266e-30
1.86437e-27
7.13627e-25
1.53828e-22
2.0834e-20
1.9106e-18
1.1773e-16
3.20787e-15
1.87535e-36
3.41406e-33
3.0428e-30
1.72115e-27
6.58306e-25
1.4321e-22
1.96964e-20
1.82724e-18
1.12226e-16
2.98641e-15
1.1797e-39
2.43479e-36
2.46722e-33
1.56108e-30
6.02245e-28
1.40327e-25
2.20169e-23
2.37071e-21
1.63923e-19
5.07688e-18
1.09935e-39
2.15315e-36
2.09242e-33
1.30915e-30
5.62161e-28
1.37399e-25
2.16216e-23
2.3372e-21
1.71541e-19
5.57026e-18
9.4136e-40
1.85111e-36
1.8091e-33
1.14049e-30
4.97906e-28
1.26318e-25
2.02428e-23
2.21297e-21
1.63967e-19
5.41645e-18
9.03507e-40
1.77938e-36
1.74234e-33
1.10097e-30
4.82704e-28
1.23606e-25
1.98998e-23
2.1818e-21
1.62032e-19
5.37157e-18
8.95412e-40
1.76385e-36
1.72782e-33
1.09234e-30
4.79335e-28
1.22996e-25
1.98219e-23
2.17466e-21
1.61582e-19
5.36059e-18
8.94488e-40
1.76225e-36
1.72639e-33
1.09152e-30
4.79035e-28
1.22944e-25
1.98156e-23
2.17411e-21
1.6155e-19
5.35994e-18
8.98564e-40
1.76968e-36
1.73313e-33
1.09542e-30
4.80534e-28
1.23219e-25
1.98508e-23
2.17732e-21
1.6175e-19
5.36476e-18
9.16802e-40
1.80395e-36
1.76476e-33
1.11407e-30
4.87769e-28
1.24533e-25
2.00191e-23
2.19273e-21
1.62715e-19
5.38777e-18
9.86963e-40
1.9341e-36
1.88392e-33
1.18355e-30
5.13401e-28
1.2897e-25
2.0572e-23
2.24223e-21
1.65658e-19
5.44211e-18
8.37341e-40
1.64997e-36
1.61621e-33
1.01632e-30
4.35339e-28
1.09051e-25
1.76229e-23
1.95604e-21
1.44881e-19
4.68869e-18
4.53678e-43
9.97526e-40
1.08794e-36
7.48386e-34
3.1675e-31
8.16343e-29
1.42778e-26
1.72716e-24
1.35229e-22
4.77196e-21
4.94667e-43
1.03147e-39
1.07761e-36
7.31752e-34
3.442e-31
9.28631e-29
1.62555e-26
1.96976e-24
1.63427e-22
6.0367e-21
4.30583e-43
9.01404e-40
9.46899e-37
6.47696e-34
3.09617e-31
8.66776e-29
1.54456e-26
1.89212e-24
1.58421e-22
5.95145e-21
4.1385e-43
8.67608e-40
9.13105e-37
6.2602e-34
3.00515e-31
8.49149e-29
1.52011e-26
1.86754e-24
1.56721e-22
5.90845e-21
4.10265e-43
8.60376e-40
9.05875e-37
6.21371e-34
2.98538e-31
8.4528e-29
1.5147e-26
1.86206e-24
1.56336e-22
5.89819e-21
4.09776e-43
8.5936e-40
9.04845e-37
6.20712e-34
2.98262e-31
8.44697e-29
1.51385e-26
1.86116e-24
1.56271e-22
5.89627e-21
4.11704e-43
8.63209e-40
9.08641e-37
6.23109e-34
2.99276e-31
8.4679e-29
1.51687e-26
1.8643e-24
1.56497e-22
5.90273e-21
4.19632e-43
8.78941e-40
9.24158e-37
6.32977e-34
3.03445e-31
8.54941e-29
1.52829e-26
1.87591e-24
1.57311e-22
5.92367e-21
4.47008e-43
9.32573e-40
9.76411e-37
6.65582e-34
3.16212e-31
8.77081e-29
1.55674e-26
1.90272e-24
1.58966e-22
5.94149e-21
3.44568e-43
7.23638e-40
7.62688e-37
5.2054e-34
2.43905e-31
6.7715e-29
1.22152e-26
1.53029e-24
1.29079e-22
4.79619e-21
1.49792e-46
3.47688e-43
4.0232e-40
2.95194e-37
1.33947e-34
3.71967e-32
7.048e-30
9.29216e-28
7.98247e-26
3.10804e-24
1.95212e-46
4.29574e-43
4.75867e-40
3.44352e-37
1.7355e-34
5.0405e-32
9.54875e-30
1.25967e-27
1.14586e-25
4.66672e-24
1.74813e-46
3.86186e-43
4.30102e-40
3.13456e-37
1.60508e-34
4.83625e-32
9.32429e-30
1.24324e-27
1.141e-25
4.72544e-24
1.68911e-46
3.73674e-43
4.16931e-40
3.0454e-37
1.56588e-34
4.76198e-32
9.22286e-30
1.23319e-27
1.13433e-25
4.71434e-24
1.67533e-46
3.70746e-43
4.13843e-40
3.0244e-37
1.55644e-34
4.74295e-32
9.19533e-30
1.2303e-27
1.13223e-25
4.70905e-24
1.67427e-46
3.70514e-43
4.13592e-40
3.0227e-37
1.55573e-34
4.74184e-32
9.19419e-30
1.23023e-27
1.13222e-25
4.70938e-24
1.68081e-46
3.71884e-43
4.15016e-40
3.0322e-37
1.55994e-34
4.75031e-32
9.20636e-30
1.2315e-27
1.13313e-25
4.71154e-24
1.70998e-46
3.77956e-43
4.21312e-40
3.07437e-37
1.57868e-34
4.78699e-32
9.2585e-30
1.23692e-27
1.13701e-25
4.71975e-24
1.79681e-46
3.95623e-43
4.39206e-40
3.19008e-37
1.62373e-34
4.84853e-32
9.31505e-30
1.23983e-27
1.13603e-25
4.68146e-24
1.29123e-46
2.8658e-43
3.20684e-40
2.33418e-37
1.17151e-34
3.51142e-32
6.88023e-30
9.44478e-28
8.79672e-26
3.63178e-24
4.22081e-50
1.02862e-46
1.25309e-43
9.71071e-41
4.66862e-38
1.37821e-35
2.78714e-33
3.94066e-31
3.65081e-29
1.54039e-27
6.65242e-50
1.53672e-46
1.79164e-43
1.36857e-40
7.30723e-38
2.25529e-35
4.55785e-33
6.44469e-31
6.32111e-29
2.78907e-27
6.19746e-50
1.43718e-46
1.6845e-43
1.2958e-40
7.02856e-38
2.25034e-35
4.62807e-33
6.61352e-31
6.54414e-29
2.93626e-27
6.03574e-50
1.40163e-46
1.64583e-43
1.26888e-40
6.91091e-38
2.23326e-35
4.61386e-33
6.61192e-31
6.55737e-29
2.95266e-27
5.99909e-50
1.39358e-46
1.63708e-43
1.26278e-40
6.8836e-38
2.22896e-35
4.60961e-33
6.61001e-31
6.55871e-29
2.95543e-27
5.99429e-50
1.39246e-46
1.63579e-43
1.26184e-40
6.87921e-38
2.22808e-35
4.60835e-33
6.60872e-31
6.55783e-29
2.9553e-27
6.01567e-50
1.39716e-46
1.64092e-43
1.26543e-40
6.89579e-38
2.23131e-35
4.6128e-33
6.6131e-31
6.56062e-29
2.95542e-27
6.09706e-50
1.41465e-46
1.65959e-43
1.27823e-40
6.95262e-38
2.2401e-35
4.62158e-33
6.6175e-31
6.55863e-29
2.9494e-27
6.31381e-50
1.45956e-46
1.70554e-43
1.30767e-40
7.05108e-38
2.23709e-35
4.58537e-33
6.54263e-31
6.46478e-29
2.8855e-27
4.35019e-50
1.01518e-46
1.1976e-43
9.21463e-41
4.90242e-38
1.56457e-35
3.28101e-33
4.85257e-31
4.89833e-29
2.20064e-27
1.03932e-53
2.64918e-50
3.38136e-47
2.75152e-44
1.39215e-41
4.33538e-39
9.27763e-37
1.39353e-34
1.37806e-32
6.23148e-31
1.99299e-53
4.81484e-50
5.88028e-47
4.71467e-44
2.64937e-41
8.62476e-39
1.84403e-36
2.76915e-34
2.89912e-32
1.37078e-30
1.94681e-53
4.7215e-50
5.79697e-47
4.68063e-44
2.67192e-41
9.02363e-39
1.96339e-36
2.97981e-34
3.14744e-32
1.51349e-30
1.91775e-53
4.65751e-50
5.72876e-47
4.63578e-44
2.65715e-41
9.0573e-39
1.9797e-36
3.01314e-34
3.18992e-32
1.53944e-30
1.90994e-53
4.64006e-50
5.70983e-47
4.62294e-44
2.65216e-41
9.05894e-39
1.98211e-36
3.01879e-34
3.19756e-32
1.5443e-30
1.90992e-53
4.64001e-50
5.70975e-47
4.62291e-44
2.65231e-41
9.06148e-39
1.98287e-36
3.02014e-34
3.19914e-32
1.54518e-30
1.91393e-53
4.64895e-50
5.71956e-47
4.6297e-44
2.65517e-41
9.06241e-39
1.98213e-36
3.01811e-34
3.19625e-32
1.54317e-30
1.932e-53
4.68825e-50
5.7614e-47
4.65762e-44
2.6661e-41
9.05994e-39
1.97745e-36
3.00711e-34
3.18131e-32
1.53308e-30
1.96939e-53
4.76225e-50
5.8302e-47
4.69228e-44
2.6627e-41
8.90723e-39
1.9313e-36
2.92644e-34
3.08609e-32
1.47521e-30
1.33111e-53
3.25355e-50
4.02665e-47
3.25616e-44
1.82409e-41
6.14192e-39
1.36481e-36
2.14911e-34
2.31926e-32
1.11637e-30
2.3176e-57
6.16053e-54
8.20991e-51
6.98708e-48
3.7035e-45
1.21045e-42
2.7254e-40
4.32115e-38
4.52867e-36
2.17734e-34
5.41733e-57
1.36471e-53
1.73991e-50
1.45849e-47
8.58735e-45
2.93381e-42
6.59875e-40
1.04574e-37
1.16035e-35
5.8331e-34
5.58108e-57
1.41142e-53
1.80905e-50
1.52714e-47
9.13393e-45
3.23754e-42
7.41092e-40
1.18704e-37
1.32894e-35
6.79496e-34
5.56805e-57
1.4101e-53
1.81065e-50
1.5319e-47
9.19995e-45
3.29144e-42
7.56896e-40
1.21587e-37
1.3644e-35
7.00182e-34
5.56325e-57
1.40934e-53
1.81047e-50
1.53255e-47
9.21211e-45
3.3026e-42
7.60254e-40
1.22207e-37
1.37209e-35
7.04679e-34
5.56386e-57
1.4095e-53
1.81067e-50
1.53274e-47
9.21382e-45
3.30396e-42
7.6065e-40
1.2228e-37
1.37297e-35
7.05191e-34
5.57026e-57
1.41089e-53
1.8121e-50
1.53358e-47
9.21528e-45
3.30113e-42
7.59618e-40
1.22075e-37
1.37032e-35
7.03514e-34
5.59324e-57
1.41537e-53
1.81583e-50
1.53477e-47
9.20455e-45
3.28246e-42
7.53683e-40
1.20956e-37
1.35624e-35
6.94869e-34
5.6134e-57
1.41571e-53
1.80956e-50
1.52267e-47
9.05177e-45
3.17573e-42
7.24096e-40
1.15749e-37
1.29305e-35
6.56503e-34
3.76497e-57
9.60603e-54
1.24217e-50
1.05068e-47
6.16357e-45
2.17356e-42
5.07589e-40
8.42582e-38
9.60951e-36
4.89189e-34
4.36234e-27
3.16094e-24
1.06109e-21
2.07874e-19
2.5294e-17
1.93342e-15
9.17776e-14
2.62602e-12
4.19367e-11
2.22807e-10
4.93908e-30
4.23429e-27
1.78232e-24
4.59131e-22
7.63948e-20
8.25643e-18
5.70513e-16
2.43111e-14
5.8009e-13
4.22824e-12
4.37576e-33
4.39263e-30
2.27649e-27
7.51203e-25
1.65257e-22
2.4239e-20
2.32415e-18
1.40048e-16
4.81197e-15
5.07173e-14
3.01822e-36
3.49872e-33
2.18747e-30
9.00699e-28
2.53803e-25
4.86907e-23
6.21235e-21
5.05795e-19
2.44293e-17
3.65777e-16
1.60805e-39
2.12001e-36
1.56693e-33
7.85502e-31
2.75488e-28
6.68725e-26
1.09289e-23
1.1725e-21
7.49663e-20
1.47773e-18
6.5241e-43
9.63717e-40
8.26547e-37
4.93755e-34
2.10365e-31
6.29232e-29
1.29298e-26
1.75943e-24
1.38603e-22
3.26181e-21
1.96244e-46
3.20367e-43
3.13817e-40
2.19698e-37
1.11988e-34
4.09735e-32
1.04105e-29
1.71886e-27
1.5772e-25
4.10172e-24
4.15979e-50
7.41982e-47
8.21093e-44
6.69055e-41
4.08206e-38
1.816e-35
5.57023e-33
1.08786e-30
1.13425e-28
3.1976e-27
5.61376e-54
1.08738e-50
1.35637e-47
1.28841e-44
9.35063e-42
4.9914e-39
1.82864e-36
4.20747e-34
5.05673e-32
1.63425e-30
3.67794e-58
7.71935e-55
1.08323e-51
1.19085e-48
1.01846e-45
6.47381e-43
2.82729e-40
7.76576e-38
1.13536e-35
4.90589e-34
5.48932e-31
4.50458e-28
1.78121e-25
4.4968e-23
8.15041e-21
1.13043e-18
1.23099e-16
1.03948e-14
6.54416e-13
2.95548e-11
1.21078e-33
1.18397e-30
5.96565e-28
2.05195e-25
5.32114e-23
1.06598e-20
1.61664e-18
1.76818e-16
1.28842e-14
5.43776e-13
2.2462e-36
2.65894e-33
1.71461e-30
7.80416e-28
2.68382e-25
6.97964e-23
1.33408e-20
1.78174e-18
1.50803e-16
5.92894e-15
3.40062e-39
4.81974e-36
3.85416e-33
2.19914e-30
9.41935e-28
3.018e-25
7.05859e-23
1.1544e-20
1.2144e-18
6.5542e-17
4.05474e-42
6.70361e-39
6.39852e-36
4.38746e-33
2.25739e-30
8.68955e-28
2.45254e-25
4.89843e-23
6.4825e-21
4.77422e-19
3.68367e-45
6.90255e-42
7.61775e-39
6.10362e-36
3.69545e-33
1.68675e-30
5.70652e-28
1.39292e-25
2.33572e-23
2.23441e-21
2.45979e-48
5.08983e-45
6.33821e-42
5.82614e-39
4.10866e-36
2.22248e-33
9.12228e-31
2.78409e-28
5.935e-26
6.72e-24
1.14543e-51
2.56291e-48
3.54168e-45
3.70564e-42
3.05967e-39
2.00461e-36
1.03475e-33
4.02007e-31
1.06368e-28
1.36304e-26
3.37467e-55
8.06564e-52
1.23166e-48
1.47948e-45
1.46675e-42
1.19641e-39
7.81574e-37
3.85316e-34
1.28398e-31
1.92588e-29
4.84017e-59
1.23155e-55
2.08965e-52
2.92153e-49
3.49555e-46
3.52565e-43
2.91944e-40
1.86564e-37
8.35346e-35
1.67535e-32
4.70261e-36
7.23877e-34
-7.68468e-30
-9.28377e-27
-5.52301e-24
-2.09095e-21
-5.03268e-19
-7.88164e-17
-8.14445e-15
-6.02416e-13
-3.26769e-38
-1.26693e-34
-1.91572e-31
-1.61131e-28
-8.55855e-26
-3.01701e-23
-7.06773e-21
-1.07234e-18
-9.81389e-17
-5.21172e-15
-1.84693e-40
-6.52763e-37
-1.00025e-33
-8.89918e-31
-5.09964e-28
-1.95064e-25
-4.94379e-23
-7.85918e-21
-6.44141e-19
1.06567e-17
-4.72862e-43
-1.74874e-39
-2.8938e-36
-2.83801e-33
-1.81903e-30
-7.86746e-28
-2.27699e-25
-4.20807e-23
-4.57347e-21
-3.75884e-19
-7.33197e-46
-2.91432e-42
-5.29475e-39
-5.80582e-36
-4.22686e-33
-2.10694e-30
-7.13357e-28
-1.56858e-25
-2.02836e-23
-1.19323e-21
-7.37388e-49
-3.17349e-45
-6.36347e-42
-7.8463e-39
-6.53413e-36
-3.78446e-33
-1.50993e-30
-3.95288e-28
-6.06624e-26
-4.0905e-24
-4.87035e-52
-2.27156e-48
-5.0303e-45
-6.98521e-42
-6.67015e-39
-4.49829e-36
-2.10814e-33
-6.39972e-31
-1.0308e-28
-3.34711e-27
-2.05817e-55
-1.03885e-51
-2.53517e-48
-3.95707e-45
-4.32357e-42
-3.37741e-39
-1.82024e-36
-5.74225e-34
-2.25183e-32
4.6578e-29
-5.10448e-59
-2.78733e-55
-7.47677e-52
-1.30677e-48
-1.62159e-45
-1.43036e-42
-7.72707e-40
2.52295e-39
4.13286e-34
2.98086e-31
-5.70841e-63
-3.38214e-59
-9.94123e-56
-1.9223e-52
-2.60095e-49
-2.09498e-46
5.67374e-44
5.28974e-40
9.5515e-37
8.72172e-34
3.01044e-39
7.2641e-36
9.31681e-33
8.06081e-30
4.95394e-27
2.1476e-24
6.69669e-22
1.50676e-19
2.42185e-17
2.83387e-15
5.70219e-42
1.79906e-38
2.93145e-35
3.05362e-32
2.143e-29
1.0183e-26
3.20301e-24
6.12181e-22
5.39244e-20
3.30557e-18
5.49711e-45
1.64393e-41
2.65104e-38
2.89341e-35
2.19006e-32
1.09887e-29
3.27548e-27
3.73541e-25
-1.10933e-22
-9.14237e-20
-1.16264e-47
-7.08012e-44
-1.72448e-40
-2.35828e-37
-2.03176e-34
-1.14668e-31
-4.21034e-29
-9.26689e-27
-5.56947e-25
5.58063e-22
-4.94738e-50
-2.91712e-46
-7.63032e-43
-1.17336e-39
-1.16417e-36
-7.64249e-34
-3.26622e-31
-8.5884e-29
-1.23986e-26
-1.03495e-24
-7.72038e-53
-4.97242e-49
-1.46963e-45
-2.62267e-42
-3.08881e-39
-2.4552e-36
-1.29279e-33
-4.25316e-31
-7.75672e-29
-5.94622e-27
-6.51649e-56
-4.64474e-52
-1.56401e-48
-3.27203e-45
-4.6513e-42
-4.60412e-39
-3.12247e-36
-1.36933e-33
-3.42776e-31
-3.61194e-29
-3.15588e-59
-2.47792e-55
-9.45998e-52
-2.31254e-48
-3.97148e-45
-4.94402e-42
-4.437e-39
-2.7461e-36
-1.04591e-33
-1.79355e-31
-8.47706e-63
-7.27526e-59
-3.12848e-55
-8.89951e-52
-1.85009e-48
-2.94384e-45
-3.66848e-42
-3.53034e-39
-2.25968e-36
-7.03937e-34
-1.02431e-66
-9.56874e-63
-4.64224e-59
-1.55096e-55
-4.00716e-52
-8.78241e-49
-1.70632e-45
-2.66896e-42
-2.99896e-39
-1.84272e-36
1.18026e-42
3.32212e-39
5.15683e-36
5.48082e-33
4.12517e-30
2.17326e-27
7.89227e-25
1.88619e-22
2.74355e-20
1.98764e-18
1.88003e-45
6.77375e-42
1.28348e-38
1.56733e-35
1.29171e-32
7.20534e-30
2.66693e-27
6.2697e-25
9.37402e-23
9.41675e-21
7.49814e-49
1.23832e-45
6.90001e-43
5.3733e-40
1.33361e-36
1.63085e-33
9.60387e-31
2.83655e-28
5.06257e-26
1.1541e-23
-4.93295e-51
-3.05415e-47
-8.03615e-44
-1.20568e-40
-1.13466e-37
-6.87191e-35
-2.64116e-32
-6.1755e-30