/*--------------------------------*- C++ -*----------------------------------*\
| =========                 |                                                 |
| \\      /  F ield         | OpenFOAM: The Open Source CFD Toolbox           |
|  \\    /   O peration     | Version:  2.4.0                                 |
|   \\  /    A nd           | Web:      www.OpenFOAM.org                      |
|    \\/     M anipulation  |                                                 |
\*---------------------------------------------------------------------------*/
FoamFile
{
    version     2.0;
    format      ascii;
    class       volScalarField;
    location    "0.02";
    object      phi;
}
// * * * * * * * * * * * * * * * * * * * * * * * * * * * * * * * * * * * * * //

dimensions      [1 2 -3 0 0 -1 0];

internalField   nonuniform List<scalar> 
9000
(
0.00902594
0.00904785
0.00908988
0.00914829
0.00921746
0.00928981
0.00935594
0.0094048
0.00942419
0.00940149
0.0092433
0.00927142
0.00932577
0.0094024
0.00949524
0.00959595
0.0096939
0.00977625
0.0098284
0.00983483
0.00968424
0.00972574
0.00980674
0.00992298
0.0100677
0.010231
0.0104
0.010558
0.0106852
0.0107594
0.0103606
0.0104247
0.0105509
0.0107348
0.0109691
0.0112423
0.0115379
0.0118333
0.0120996
0.0123026
0.0112891
0.011388
0.0115846
0.0118751
0.0122526
0.0127046
0.0132111
0.0137412
0.014252
0.0146884
0.0124891
0.0126397
0.012941
0.0133924
0.0139902
0.0147241
0.0155722
0.016495
0.0174288
0.0182838
0.0139805
0.0142046
0.014657
0.015344
0.0162715
0.0174392
0.0188311
0.0204032
0.0220671
0.0236762
0.0157788
0.0161046
0.0167675
0.0177887
0.0191957
0.0210145
0.0232555
0.0258899
0.0288118
0.0317929
0.0178909
0.0183516
0.0192972
0.0207754
0.022855
0.0256193
0.029149
0.0334861
0.0385617
0.0440696
0.0203089
0.0209412
0.0222499
0.0243251
0.0273054
0.0313795
0.0367778
0.043739
0.0524119
0.0625994
0.0239679
0.0239902
0.0240311
0.0240829
0.0241345
0.0241712
0.024176
0.0241294
0.0240114
0.0238019
0.0244294
0.0244598
0.0245166
0.0245915
0.0246722
0.0247428
0.024784
0.024774
0.0246896
0.0245077
0.0253585
0.025406
0.0254964
0.0256201
0.0257629
0.0259057
0.0260252
0.0260945
0.0260838
0.0259631
0.0267663
0.0268416
0.0269867
0.0271905
0.0274355
0.0276985
0.0279497
0.0281536
0.0282704
0.0282579
0.028667
0.0287833
0.0290097
0.0293328
0.0297318
0.0301774
0.0306316
0.0310467
0.0313672
0.0315321
0.0310751
0.031249
0.0315898
0.0320823
0.032702
0.0334132
0.0341672
0.0349003
0.0355348
0.0359813
0.0340012
0.0342529
0.0347492
0.0354737
0.0363994
0.0374844
0.0386683
0.0398678
0.0409749
0.0418586
0.0374475
0.0378009
0.0385014
0.0395337
0.0408704
0.0424661
0.0442496
0.046116
0.0479187
0.049468
0.0414021
0.0418841
0.042844
0.0442708
0.0461413
0.0484118
0.0510055
0.0537975
0.0565974
0.0591366
0.0458346
0.0464731
0.0477506
0.0496643
0.0522019
0.0553298
0.0589753
0.0630025
0.0671794
0.0711427
0.0327518
0.0327442
0.0327257
0.0326896
0.0326262
0.0325231
0.0323663
0.0321402
0.0318295
0.0314194
0.0332338
0.0332311
0.033222
0.0331993
0.0331525
0.0330681
0.0329305
0.0327228
0.0324275
0.0320282
0.0341995
0.0342068
0.0342174
0.0342226
0.0342105
0.0341651
0.0340682
0.0338992
0.0336371
0.0332615
0.0356512
0.0356745
0.0357161
0.0357661
0.0358095
0.0358273
0.0357965
0.0356913
0.0354847
0.03515
0.0375903
0.0376366
0.0377231
0.0378376
0.0379618
0.038072
0.0381389
0.0381293
0.0380076
0.0377375
0.0400161
0.0400935
0.040241
0.0404438
0.0406793
0.0409176
0.0411218
0.0412486
0.0412505
0.0410781
0.0429225
0.0430406
0.043268
0.0435869
0.0439699
0.0443799
0.0447701
0.0450846
0.0452603
0.0452303
0.0462959
0.0464653
0.046794
0.0472608
0.047833
0.0484654
0.0490997
0.0496647
0.0500774
0.0502476
0.0501122
0.0503445
0.0507974
0.0514466
0.0522538
0.0531652
0.0541097
0.0549979
0.0557232
0.0561651
0.0543348
0.0546415
0.055242
0.0561087
0.0571981
0.0584476
0.0597724
0.0610629
0.0621843
0.0629798
0.0356709
0.0356361
0.0355644
0.0354516
0.0352919
0.0350779
0.0348013
0.0344534
0.0340255
0.0335103
0.0360665
0.0360337
0.0359657
0.0358583
0.0357049
0.0354977
0.0352276
0.034885
0.0344607
0.0339462
0.0368566
0.0368278
0.0367677
0.0366711
0.0365308
0.0363377
0.0360811
0.0357501
0.0353335
0.0348212
0.0380382
0.0380157
0.0379679
0.0378885
0.037769
0.0375982
0.0373636
0.0370513
0.0366478
0.0361402
0.039606
0.0395925
0.039562
0.0395071
0.0394171
0.0392786
0.0390757
0.0387914
0.0384082
0.0379095
0.0415516
0.0415501
0.0415428
0.0415205
0.0414704
0.0413756
0.0412165
0.0409715
0.0406181
0.0401346
0.0438624
0.0438762
0.0438985
0.0439183
0.0439197
0.0438821
0.0437809
0.0435887
0.043277
0.0428176
0.0465203
0.046553
0.046612
0.0466842
0.0467501
0.0467846
0.0467573
0.046634
0.0463784
0.0459542
0.0495008
0.0495563
0.0496595
0.0497948
0.049939
0.0500615
0.0501254
0.0500886
0.0499053
0.0495297
0.0527728
0.0528547
0.0530094
0.0532186
0.0534546
0.0536813
0.0538542
0.0539219
0.0538282
0.0535155
0.0343032
0.0342557
0.0341598
0.0340133
0.0338136
0.0335571
0.0332401
0.0328588
0.0324096
0.0318897
0.0345925
0.0345455
0.0344506
0.0343054
0.0341071
0.0338518
0.0335356
0.0331543
0.032704
0.0321815
0.0351693
0.0351234
0.0350304
0.0348879
0.0346925
0.0344399
0.0341254
0.0337442
0.0332918
0.0327644
0.0360292
0.035985
0.0358952
0.035757
0.0355662
0.0353179
0.0350063
0.0346258
0.0341708
0.0336364
0.0371659
0.037124
0.0370388
0.0369066
0.0367225
0.0364805
0.0361737
0.0357948
0.0353369
0.0347939
0.0385699
0.0385313
0.038452
0.038328
0.0381531
0.0379199
0.0376199
0.0372442
0.036784
0.0362313
0.0402291
0.0401945
0.040123
0.0400094
0.0398465
0.039625
0.0393347
0.0389643
0.0385027
0.0379399
0.0421277
0.0420982
0.0420362
0.0419357
0.0417878
0.0415814
0.0413038
0.0409413
0.0404801
0.0399073
0.0442464
0.044223
0.0441725
0.0440876
0.043958
0.0437702
0.0435088
0.0431572
0.0426984
0.0421163
0.0465623
0.0465458
0.0465086
0.0464422
0.046334
0.0461683
0.0459266
0.045589
0.0451348
0.0445446
0.0302054
0.0301578
0.0300622
0.029918
0.029724
0.0294791
0.029182
0.0288316
0.0284271
0.027968
0.030404
0.0303564
0.0302608
0.0301164
0.0299221
0.0296766
0.0293786
0.0290267
0.02862
0.028158
0.0307996
0.030752
0.0306563
0.0305117
0.0303168
0.0300702
0.0297702
0.0294154
0.0290046
0.0285369
0.0313885
0.0313409
0.0312452
0.0311002
0.0309045
0.0306563
0.0303536
0.0299946
0.0295777
0.0291017
0.0321654
0.0321178
0.032022
0.0318768
0.0316802
0.03143
0.0311239
0.0307595
0.0303347
0.0298479
0.0331226
0.0330752
0.0329795
0.0328341
0.0326366
0.0323843
0.0320742
0.0317034
0.0312692
0.0307693
0.0342509
0.0342036
0.0341083
0.0339628
0.0337645
0.03351
0.0331957
0.0328177
0.0323727
0.0318577
0.0355386
0.0354918
0.0353969
0.0352517
0.0350528
0.0347962
0.0344774
0.0340916
0.0336346
0.0331027
0.0369723
0.0369259
0.0368318
0.0366871
0.0364879
0.0362294
0.035906
0.0355121
0.0350423
0.0344919
0.0385361
0.0384904
0.0383973
0.0382535
0.0380544
0.0377941
0.0374662
0.0370639
0.0365805
0.0360104
0.024509
0.0244686
0.0243877
0.0242663
0.0241041
0.0239009
0.0236566
0.0233713
0.0230451
0.0226787
0.0246393
0.0245987
0.0245176
0.0243958
0.0242329
0.0240288
0.0237834
0.0234966
0.0231686
0.0227999
0.0248987
0.0248579
0.0247762
0.0246535
0.0244893
0.0242835
0.0240357
0.023746
0.0234144
0.0230413
0.0252847
0.0252434
0.0251609
0.0250368
0.0248708
0.0246623
0.0244112
0.0241172
0.0237802
0.0234007
0.0257933
0.0257515
0.0256679
0.0255421
0.0253736
0.0251618
0.0249062
0.0246065
0.0242626
0.0238745
0.0264193
0.0263769
0.0262921
0.0261641
0.0259926
0.0257767
0.0255158
0.0252092
0.0248567
0.0244582
0.0271564
0.0271133
0.0270269
0.0268966
0.0267216
0.026501
0.0262338
0.0259192
0.0255567
0.025146
0.0279967
0.0279528
0.0278648
0.0277318
0.0275529
0.027327
0.0270528
0.0267292
0.0263553
0.0259308
0.0289314
0.0288866
0.0287968
0.0286609
0.0284778
0.028246
0.0279641
0.0276306
0.0272443
0.0268044
0.0299503
0.0299047
0.0298129
0.0296739
0.0294863
0.0292483
0.028958
0.0286138
0.0282139
0.0277575
0.0179319
0.0179021
0.0178425
0.0177532
0.0176343
0.0174859
0.0173083
0.0171018
0.0168671
0.0166046
0.0180125
0.0179826
0.0179227
0.017833
0.0177136
0.0175645
0.017386
0.0171785
0.0169425
0.0166786
0.0181731
0.0181429
0.0180825
0.017992
0.0178715
0.017721
0.0175408
0.0173312
0.0170927
0.016826
0.0184118
0.0183812
0.0183201
0.0182285
0.0181063
0.0179538
0.017771
0.0175584
0.0173162
0.0170452
0.0187263
0.0186953
0.0186332
0.01854
0.0184157
0.0182605
0.0180744
0.0178576
0.0176106
0.017334
0.0191134
0.0190817
0.0190183
0.0189233
0.0187965
0.0186379
0.0184476
0.0182259
0.017973
0.0176894
0.0195688
0.0195364
0.0194717
0.0193744
0.0192446
0.0190821
0.018887
0.0186594
0.0183995
0.0181079
0.0200879
0.0200547
0.0199884
0.0198886
0.0197554
0.0195885
0.0193879
0.0191536
0.0188859
0.018585
0.0206652
0.0206312
0.020563
0.0204605
0.0203235
0.0201517
0.0199451
0.0197034
0.0194269
0.0191158
0.0212946
0.0212596
0.0211895
0.021084
0.0209429
0.0207659
0.0205526
0.0203029
0.0200168
0.0196947
0.0108984
0.0108803
0.0108443
0.0107903
0.0107185
0.0106291
0.0105223
0.0103985
0.010258
0.0101013
0.0109421
0.0109239
0.0108877
0.0108335
0.0107614
0.0106715
0.0105642
0.0104398
0.0102986
0.0101412
0.011029
0.0110107
0.0109741
0.0109194
0.0108467
0.010756
0.0106477
0.0105221
0.0103795
0.0102205
0.0111583
0.0111397
0.0111027
0.0110473
0.0109735
0.0108816
0.0107718
0.0106444
0.0104998
0.0103384
0.0113285
0.0113097
0.011272
0.0112156
0.0111406
0.0110471
0.0109354
0.0108056
0.0106583
0.0104938
0.011538
0.0115188
0.0114804
0.0114228
0.0113462
0.0112508
0.0111366
0.011004
0.0108533
0.010685
0.0117845
0.0117649
0.0117255
0.0116667
0.0115882
0.0114904
0.0113734
0.0112374
0.0110828
0.0109101
0.0120655
0.0120453
0.012005
0.0119446
0.0118641
0.0117636
0.0116434
0.0115035
0.0113445
0.0111667
0.0123781
0.0123573
0.0123159
0.0122537
0.0121709
0.0120675
0.0119436
0.0117996
0.0116356
0.0114521
0.0127189
0.0126975
0.0126548
0.0125908
0.0125055
0.0123989
0.0122711
0.0121224
0.0119531
0.0117635
0.00365313
0.0036471
0.00363506
0.00361705
0.00359312
0.00356333
0.00352779
0.00348662
0.00343995
0.00338798
0.00366693
0.00366087
0.00364878
0.00363069
0.00360665
0.00357673
0.00354102
0.00349966
0.00345277
0.00340054
0.00369439
0.00368828
0.00367609
0.00365784
0.00363358
0.00360339
0.00356736
0.00352561
0.00347828
0.00342555
0.00373524
0.00372905
0.0037167
0.00369821
0.00367364
0.00364305
0.00360653
0.00356421
0.00351622
0.00346275
0.00378904
0.00378274
0.00377019
0.00375139
0.0037264
0.00369528
0.00365813
0.00361505
0.0035662
0.00351175
0.00385523
0.00384881
0.003836
0.00381682
0.00379131
0.00375955
0.00372161
0.00367761
0.0036277
0.00357204
0.00393313
0.00392657
0.00391346
0.00389383
0.00386772
0.00383519
0.00379633
0.00375125
0.00370008
0.00364301
0.00402193
0.0040152
0.00400175
0.00398161
0.00395481
0.00392142
0.00388151
0.00383519
0.00378261
0.00372392
0.00412071
0.00411379
0.00409997
0.00407926
0.0040517
0.00401735
0.00397627
0.00392858
0.00387441
0.00381394
0.00422845
0.00422133
0.0042071
0.00418577
0.00415738
0.00412198
0.00407964
0.00403045
0.00397456
0.00391215
0.0445066
0.0470024
0.0522854
0.060984
0.074162
0.0934879
0.1215
0.161997
0.220591
0.305639
0.0501943
0.0528075
0.0583297
0.067398
0.0810883
0.101083
0.129934
0.171442
0.231199
0.317501
0.0509253
0.05354
0.0590653
0.068138
0.0818338
0.101835
0.130693
0.172207
0.231969
0.318273
0.051048
0.0536625
0.0591875
0.0682598
0.0819551
0.101956
0.130813
0.172326
0.232086
0.318389
0.0510717
0.0536862
0.0592112
0.0682833
0.0819785
0.101979
0.130836
0.172348
0.232108
0.318411
0.0510732
0.0536877
0.0592126
0.0682848
0.08198
0.10198
0.130837
0.17235
0.23211
0.318413
0.0510564
0.0536709
0.0591959
0.0682681
0.0819634
0.101964
0.130821
0.172334
0.232094
0.318397
0.0509635
0.0535782
0.0591034
0.0681761
0.0818718
0.101873
0.130731
0.172245
0.232006
0.318311
0.0503705
0.0529838
0.0585064
0.0675752
0.0812662
0.101262
0.130114
0.171623
0.231381
0.317685
0.0453029
0.0478018
0.0530912
0.0617998
0.0749921
0.0943378
0.122377
0.162911
0.221555
0.306676
0.0894159
0.0916977
0.0963228
0.103406
0.113098
0.125548
0.140839
0.158871
0.179156
0.200472
0.102802
0.105212
0.110091
0.117548
0.127723
0.14075
0.156686
0.175394
0.196336
0.21822
0.104778
0.107188
0.112069
0.119527
0.129703
0.14273
0.158663
0.177365
0.198295
0.220162
0.105126
0.107536
0.112416
0.119873
0.130047
0.143071
0.159002
0.177701
0.198627
0.220488
0.105194
0.107605
0.112484
0.119941
0.130115
0.143138
0.159069
0.177767
0.198692
0.220553
0.105199
0.107609
0.112488
0.119945
0.130119
0.143143
0.159073
0.177771
0.198696
0.220557
0.10515
0.107561
0.11244
0.119897
0.130071
0.143095
0.159026
0.177724
0.19865
0.220512
0.104888
0.107298
0.112179
0.119637
0.129813
0.142839
0.158772
0.177474
0.198403
0.220269
0.103306
0.105716
0.110596
0.118054
0.128231
0.141259
0.157198
0.175909
0.196853
0.21874
0.0916986
0.0939901
0.0986352
0.105751
0.115491
0.128009
0.143397
0.161561
0.182026
0.203582
0.0954073
0.0964782
0.0985969
0.101712
0.105734
0.110522
0.115864
0.121456
0.126882
0.131598
0.11164
0.112774
0.115014
0.118302
0.122536
0.127557
0.133132
0.13893
0.144505
0.14928
0.114422
0.115554
0.117791
0.121073
0.125297
0.130305
0.135863
0.141639
0.147185
0.151925
0.114946
0.116078
0.118313
0.121592
0.125814
0.130818
0.136372
0.142143
0.147683
0.152416
0.115051
0.116183
0.118418
0.121697
0.125918
0.130922
0.136474
0.142244
0.147783
0.152515
0.115058
0.116189
0.118425
0.121704
0.125924
0.130928
0.136481
0.142251
0.14779
0.152522
0.114984
0.116115
0.118351
0.12163
0.125851
0.130856
0.136409
0.14218
0.147719
0.152452
0.114592
0.115724
0.117961
0.121242
0.125466
0.130473
0.136031
0.141806
0.147351
0.15209
0.112405
0.113539
0.115779
0.119067
0.1233
0.128321
0.133896
0.139695
0.145269
0.150045
0.0987882
0.0998588
0.101976
0.105088
0.109106
0.113888
0.119224
0.124813
0.130248
0.135015
0.084392
0.0847415
0.0854183
0.086378
0.0875521
0.0888476
0.0901463
0.0913057
0.0921627
0.0925409
0.100236
0.100599
0.101301
0.102293
0.103497
0.104812
0.106107
0.107228
0.107997
0.108225
0.103373
0.103732
0.104427
0.105406
0.106594
0.107887
0.109156
0.110245
0.110975
0.111157
0.104006
0.104364
0.105057
0.106033
0.107218
0.108507
0.10977
0.110852
0.111576
0.11175
0.104136
0.104495
0.105187
0.106163
0.107346
0.108635
0.109897
0.110978
0.111701
0.111874
0.104145
0.104503
0.105195
0.106171
0.107355
0.108643
0.109906
0.110987
0.111709
0.111882
0.104053
0.104411
0.105104
0.10608
0.107264
0.108553
0.109817
0.110898
0.111621
0.111795
0.103584
0.103943
0.104637
0.105616
0.106803
0.108096
0.109364
0.110451
0.11118
0.111361
0.101174
0.101537
0.102238
0.103227
0.104429
0.105741
0.107034
0.108151
0.108916
0.10914
0.0884947
0.0888367
0.0894982
0.0904337
0.0915742
0.0928261
0.0940718
0.0951725
0.0959747
0.0963247
0.068865
0.0689189
0.0690162
0.0691357
0.0692463
0.0693078
0.0692724
0.0690869
0.0686949
0.0680411
0.0827137
0.0827589
0.0828375
0.082926
0.0829896
0.0829841
0.0828566
0.0825484
0.0819978
0.0811444
0.0858327
0.0858733
0.0859425
0.0860168
0.0860613
0.0860316
0.0858746
0.0855314
0.0849403
0.0840406
0.0865036
0.0865432
0.0866106
0.086682
0.0867227
0.0866883
0.0865256
0.0861758
0.0855772
0.0846692
0.0866458
0.0866853
0.0867523
0.0868232
0.0868633
0.086828
0.0866643
0.0863134
0.0857135
0.084804
0.0866551
0.0866946
0.0867616
0.0868324
0.0868725
0.0868372
0.0866735
0.0863225
0.0857225
0.084813
0.0865556
0.0865952
0.0866625
0.0867337
0.0867743
0.0867396
0.0865767
0.0862266
0.0856277
0.0847193
0.0860635
0.0861038
0.0861727
0.0862463
0.08629
0.0862593
0.086101
0.0857564
0.0851636
0.0842622
0.0837288
0.0837731
0.0838496
0.083935
0.0839947
0.0839842
0.0838509
0.0835359
0.0829779
0.0821164
0.0733094
0.0733546
0.0734336
0.0735248
0.0735963
0.0736073
0.0735101
0.0732529
0.072784
0.072059
0.0535753
0.0535364
0.0534544
0.0533213
0.0531253
0.0528518
0.052484
0.0520039
0.0513938
0.050637
0.0648283
0.0647742
0.0646614
0.064481
0.0642197
0.0638614
0.0633873
0.0627777
0.0620128
0.0610745
0.0676556
0.067597
0.0674752
0.067281
0.0670015
0.0666202
0.0661186
0.0654766
0.0646747
0.0636948
0.068299
0.0682395
0.0681158
0.067919
0.0676358
0.06725
0.066743
0.0660948
0.0652859
0.0642982
0.0684388
0.0683791
0.0682551
0.0680578
0.067774
0.0673874
0.0668794
0.0662301
0.0654199
0.0644308
0.068448
0.0683884
0.0682644
0.068067
0.0677832
0.0673966
0.0668885
0.0662392
0.0654289
0.0644398
0.0683507
0.0682911
0.0681674
0.0679704
0.067687
0.0673011
0.0667938
0.0661453
0.065336
0.0643478
0.0678833
0.0678245
0.0677022
0.0675074
0.067227
0.0668446
0.0663415
0.065698
0.0648943
0.0639125
0.0658225
0.0657672
0.065652
0.0654678
0.0652016
0.0648371
0.0643557
0.0637375
0.062963
0.062014
0.0579487
0.0579021
0.0578043
0.0576468
0.057417
0.0570996
0.056677
0.0561311
0.0554448
0.0546044
0.0397464
0.0396921
0.0395821
0.0394138
0.0391833
0.0388859
0.0385165
0.0380698
0.0375409
0.0369257
0.0483033
0.0482348
0.0480963
0.0478847
0.0475958
0.0472244
0.0467648
0.0462112
0.0455583
0.0448016
0.0506515
0.0505792
0.050433
0.0502098
0.0499056
0.0495151
0.0490326
0.0484523
0.047769
0.0469783
0.0512111
0.051138
0.0509902
0.0507647
0.0504574
0.050063
0.0495759
0.0489903
0.048301
0.0475037
0.0513352
0.051262
0.0511139
0.050888
0.0505801
0.0501851
0.0496971
0.0491106
0.0484202
0.0476216
0.0513436
0.0512703
0.0511222
0.0508963
0.0505884
0.0501933
0.0497053
0.0491187
0.0484283
0.0476296
0.0512574
0.0511843
0.0510364
0.0508108
0.0505033
0.0501087
0.0496214
0.0490355
0.0483459
0.0475482
0.0508546
0.050782
0.0506353
0.0504116
0.0501065
0.0497148
0.049231
0.0486492
0.0479642
0.0471716
0.0491848
0.0491151
0.048974
0.0487587
0.0484648
0.0480871
0.04762
0.0470576
0.0463946
0.0456266
0.0436335
0.0435733
0.0434512
0.0432641
0.0430075
0.042676
0.0422633
0.0417633
0.0411699
0.040478
0.0273473
0.0273031
0.0272144
0.0270803
0.0269
0.0266721
0.0263954
0.0260689
0.0256915
0.0252629
0.0333075
0.0332526
0.0331426
0.0329765
0.0327532
0.0324715
0.0321299
0.0317274
0.031263
0.0307363
0.0350553
0.0349976
0.0348819
0.0347072
0.0344726
0.0341767
0.0338183
0.0333962
0.0329096
0.0323581
0.0354866
0.0354284
0.0353114
0.035135
0.0348981
0.0345993
0.0342374
0.0338112
0.03332
0.0327635
0.035584
0.0355256
0.0354084
0.0352317
0.0349943
0.0346949
0.0343324
0.0339054
0.0334134
0.0328559
0.0355906
0.0355322
0.035415
0.0352382
0.0350008
0.0347014
0.0343388
0.0339119
0.0334198
0.0328623
0.0355232
0.0354649
0.0353479
0.0351714
0.0349343
0.0346354
0.0342732
0.0338469
0.0333554
0.0327986
0.0352149
0.0351571
0.0350409
0.0348658
0.0346304
0.0343336
0.0339741
0.0335507
0.0330626
0.0325096
0.0339973
0.0339414
0.0338292
0.0336599
0.0334323
0.0331452
0.0327971
0.032387
0.0319138
0.0313773
0.0303841
0.0303354
0.0302376
0.0300895
0.0298896
0.029636
0.0293267
0.0289593
0.0285316
0.0280411
0.0159977
0.0159705
0.015916
0.0158341
0.0157245
0.0155872
0.015422
0.0152288
0.0150077
0.0147592
0.0195022
0.0194686
0.0194013
0.0193002
0.019165
0.0189957
0.0187921
0.0185543
0.0182823
0.0179768
0.0205765
0.0205411
0.0204703
0.020364
0.0202219
0.020044
0.0198302
0.0195804
0.0192951
0.0189745
0.0208479
0.0208122
0.0207407
0.0206332
0.0204897
0.02031
0.0200939
0.0198417
0.0195535
0.0192298
0.0209099
0.0208741
0.0208024
0.0206947
0.0205509
0.0203708
0.0201544
0.0199017
0.0196129
0.0192887
0.0209141
0.0208783
0.0208066
0.0206989
0.0205551
0.020375
0.0201586
0.0199058
0.019617
0.0192927
0.0208713
0.0208356
0.020764
0.0206565
0.0205129
0.020333
0.0201169
0.0198645
0.0195761
0.0192522
0.0206783
0.0206428
0.0205718
0.0204651
0.0203225
0.020144
0.0199294
0.0196789
0.0193925
0.0190709
0.0199406
0.0199063
0.0198375
0.0197342
0.0195961
0.0194231
0.0192151
0.0189721
0.0186942
0.018382
0.017918
0.0178876
0.0178268
0.017735
0.0176118
0.0174566
0.0172686
0.0170471
0.0167911
0.0164994
0.00526527
0.00525619
0.00523802
0.00521075
0.00517438
0.00512891
0.00507438
0.00501084
0.00493842
0.00485728
0.00642056
0.00640936
0.00638695
0.00635332
0.00630849
0.00625247
0.00618531
0.00610711
0.00601802
0.00591825
0.00678264
0.00677085
0.00674727
0.00671191
0.00666476
0.00660586
0.00653527
0.00645309
0.0063595
0.00625473
0.00687522
0.00686331
0.00683948
0.00680374
0.00675609
0.00669657
0.00662525
0.00654222
0.00644766
0.00634182
0.00689646
0.00688452
0.00686065
0.00682483
0.00677709
0.00671746
0.00664599
0.0065628
0.00646806
0.00636201
0.00689791
0.00688598
0.0068621
0.00682628
0.00677854
0.0067189
0.00664742
0.00656422
0.00646947
0.00636342
0.00688327
0.00687135
0.00684751
0.00681174
0.00676407
0.00670451
0.00663314
0.00655006
0.00645544
0.00634954
0.0068176
0.00680577
0.00678211
0.00674661
0.0066993
0.00664018
0.00656934
0.00648687
0.00639294
0.00628779
0.00657079
0.00655933
0.00653639
0.00650199
0.00645611
0.00639878
0.00633004
0.00624999
0.00615877
0.00605661
0.00591991
0.00590957
0.00588882
0.00585756
0.00581565
0.00576288
0.00569904
0.00562388
0.00553716
0.00543856
0.0220228
0.022611
0.0238223
0.0257246
0.0284183
0.0320296
0.0366877
0.0424686
0.0492496
0.0563572
0.0197213
0.0201363
0.0209805
0.0222783
0.0240581
0.0263367
0.0290883
0.0321867
0.035305
0.0377767
0.0177388
0.0180208
0.0185863
0.0194336
0.0205504
0.0218968
0.0233769
0.0247893
0.0257477
0.0255587
0.0160771
0.0162624
0.0166279
0.0171594
0.0178265
0.0185696
0.0192771
0.0197505
0.0196499
0.0184101
0.0147215
0.01484
0.0150693
0.0153914
0.0157727
0.0161548
0.0164407
0.0164741
0.0160128
0.0146942
0.0136478
0.0137221
0.0138628
0.0140529
0.0142625
0.0144441
0.0145251
0.0143996
0.0139211
0.0129006
0.0128286
0.0128747
0.0129601
0.0130703
0.0131815
0.0132583
0.0132509
0.0130942
0.0127094
0.012015
0.0122384
0.0122674
0.0123196
0.0123833
0.01244
0.0124641
0.0124221
0.012275
0.0119823
0.0115141
0.0118566
0.0118759
0.0119096
0.0119478
0.011976
0.0119743
0.0119188
0.0117837
0.0115457
0.0111925
0.0116693
0.0116841
0.0117095
0.0117365
0.0117523
0.0117397
0.0116787
0.0115481
0.0113281
0.0110041
0.0516075
0.0522541
0.0535489
0.0554901
0.0580725
0.0612875
0.0651346
0.0696732
0.0751997
0.0828008
0.0475857
0.0480812
0.0490687
0.0505374
0.0524676
0.0548263
0.0575603
0.0605797
0.0636929
0.0663194
0.0440554
0.0444319
0.0451791
0.0462823
0.0477157
0.0494369
0.051375
0.0534048
0.0552827
0.0564919
0.041026
0.0413116
0.0418761
0.0427044
0.0437707
0.0450344
0.0464321
0.0478633
0.049167
0.0500948
0.0384866
0.0387034
0.0391304
0.039753
0.0405473
0.0414773
0.0424906
0.0435119
0.0444376
0.0451409
0.0364156
0.0365805
0.0369037
0.0373711
0.0379604
0.0386388
0.0393607
0.0400644
0.0406699
0.0410812
0.0347891
0.0349152
0.0351604
0.0355109
0.0359448
0.0364309
0.0369271
0.0373792
0.0377204
0.0378723
0.0335867
0.0336846
0.0338731
0.0341382
0.0344575
0.0348
0.035125
0.0353825
0.0355165
0.0354726
0.0327929
0.0328722
0.0330233
0.0332315
0.0334737
0.0337178
0.0339216
0.0340338
0.0339972
0.0337639
0.0323983
0.0324682
0.0326005
0.03278
0.0329827
0.0331751
0.033312
0.0333342
0.0331633
0.0326879
0.0637412
0.0640507
0.0646364
0.0654199
0.0662514
0.0668504
0.0666702
0.0645744
0.0580115
0.0407706
0.060269
0.0605343
0.0610431
0.061747
0.0625648
0.0633747
0.0640169
0.0643587
0.0646226
0.0667291
0.0572478
0.0574972
0.0579894
0.0587132
0.0596625
0.0608611
0.0624255
0.0647227
0.0687491
0.0769821
0.0546556
0.0548993
0.055391
0.0561441
0.0571954
0.0586323
0.0606478
0.063639
0.0683649
0.0761257
0.0524592
0.052694
0.053172
0.0539138
0.0549629
0.0564017
0.0583775
0.0611305
0.0650031
0.0703538
0.0506322
0.0508508
0.0512949
0.0519809
0.0529391
0.0542196
0.0558969
0.0580643
0.0607985
0.0640572
0.049162
0.0493588
0.0497553
0.0503588
0.0511814
0.052239
0.0535481
0.0551125
0.0568926
0.0587465
0.0480483
0.0482225
0.0485693
0.0490871
0.049771
0.050611
0.0515855
0.052652
0.0537332
0.0547043
0.0472982
0.0474538
0.0477603
0.0482087
0.0487822
0.0494523
0.0501724
0.0508701
0.0514414
0.0517643
0.0469203
0.0470653
0.0473492
0.0477589
0.0482711
0.0488467
0.0494234
0.0499023
0.0501274
0.0498458
0.0647745
0.0648667
0.0650184
0.0651581
0.0651547
0.0647775
0.0636128
0.0608888
0.0550874
0.0430426
0.0624791
0.062579
0.0627561
0.0629628
0.0631178
0.0630929
0.062695
0.0616505
0.0596312
0.0564707
0.060532
0.060664
0.0609197
0.0612857
0.0617471
0.0623
0.0629844
0.0639638
0.0657202
0.0695172
0.0588988
0.0590693
0.0594142
0.0599468
0.0606991
0.0617431
0.0632311
0.0654712
0.0690603
0.0750959
0.0575342
0.0577354
0.0581476
0.0587963
0.0597311
0.0610423
0.0628878
0.0655323
0.0693949
0.0750839
0.0564022
0.0566196
0.0570645
0.0577622
0.0587575
0.0601233
0.0619728
0.0644693
0.0678269
0.0722794
0.055485
0.0557048
0.0561516
0.0568432
0.0578085
0.0590908
0.0607486
0.0628533
0.0654761
0.0686528
0.0547815
0.0549951
0.0554251
0.0560798
0.0569705
0.0581105
0.0595116
0.061178
0.0630965
0.0652243
0.0543014
0.0545062
0.0549149
0.0555275
0.0563405
0.0573434
0.0585117
0.0597978
0.0611219
0.0623778
0.0540571
0.0542555
0.0546501
0.0552357
0.0560004
0.0569191
0.0579442
0.0589874
0.0598905
0.060366
0.0597632
0.059779
0.0597898
0.0597531
0.0595929
0.0591807
0.058298
0.0565599
0.0532548
0.0469827
0.0584964
0.0585323
0.0585887
0.0586354
0.0586208
0.0584643
0.0580453
0.0571899
0.0556723
0.0532899
0.0574689
0.0575421
0.0576815
0.0578762
0.0581108
0.0583704
0.0586514
0.0589911
0.0595385
0.0607223
0.0566517
0.0567682
0.0570018
0.0573587
0.0578533
0.058518
0.059421
0.0606989
0.062612
0.0656308
0.0560048
0.0561604
0.0564767
0.0569701
0.0576703
0.0586298
0.0599382
0.0617432
0.0642786
0.0678925
0.0554921
0.0556766
0.0560521
0.0566376
0.0574651
0.0585861
0.0600796
0.0620621
0.0646969
0.0681965
0.0550893
0.0552912
0.0557008
0.0563343
0.057218
0.0583906
0.059907
0.061841
0.0642857
0.0673491
0.0547851
0.0549952
0.055419
0.056068
0.056959
0.0581147
0.0595632
0.0613369
0.0634715
0.0660053
0.0545785
0.0547909
0.0552173
0.0558646
0.0567405
0.057853
0.0592059
0.0607952
0.062603
0.0646012
0.0544731
0.0546849
0.0551102
0.0557523
0.0566136
0.0576924
0.0589766
0.0604332
0.0619883
0.063488
0.0514226
0.051425
0.0514193
0.0513861
0.0512916
0.0510816
0.0506688
0.0499105
0.0485605
0.0461658
0.0508458
0.0508659
0.0508977
0.0509265
0.0509271
0.0508615
0.0506743
0.0502883
0.0496044
0.0485267
0.0504167
0.0504644
0.0505551
0.0506817
0.0508334
0.0509964
0.0511569
0.051308
0.0514682
0.0517249
0.050117
0.0501972
0.0503563
0.0505949
0.0509155
0.0513246
0.0518381
0.0524898
0.053345
0.0545202
0.0499193
0.0500315
0.0502569
0.0506022
0.0510783
0.051704
0.0525098
0.0535443
0.0548814
0.0566271
0.0497947
0.0499346
0.0502167
0.0506507
0.0512518
0.0520431
0.0530588
0.0543471
0.055974
0.0580248
0.0497187
0.0498801
0.0502056
0.0507059
0.0513967
0.0523009
0.0534499
0.0548845
0.0566566
0.0588283
0.0496734
0.0498498
0.0502053
0.0507501
0.0514989
0.0524721
0.0536957
0.055202
0.0570286
0.0592169
0.0496475
0.049833
0.0502067
0.0507778
0.0515597
0.0525697
0.0538295
0.055364
0.0572003
0.0593661
0.0496353
0.0498243
0.0502062
0.0507893
0.0515856
0.052611
0.0538842
0.0554262
0.057259
0.0594036
0.0411554
0.0411582
0.0411596
0.0411533
0.0411291
0.0410725
0.0409649
0.0407835
0.0405046
0.0401121
0.0409624
0.0409772
0.041003
0.0410343
0.0410618
0.0410725
0.0410493
0.0409702
0.0408085
0.040533
0.0408513
0.0408828
0.0409427
0.0410271
0.0411294
0.0412402
0.0413467
0.0414314
0.04147
0.0414251
0.0408127
0.0408641
0.0409646
0.0411126
0.0413048
0.0415364
0.0418003
0.0420864
0.0423788
0.0426518
0.0408308
0.0409034
0.0410472
0.0412629
0.0415508
0.0419108
0.042342
0.0428418
0.0434042
0.0440178
0.0408863
0.0409794
0.0411655
0.0414472
0.0418283
0.0423132
0.0429067
0.0436134
0.0444357
0.0453728
0.0409591
0.0410708
0.0412948
0.041636
0.0421012
0.0426993
0.0434409
0.0443374
0.0453988
0.0466307
0.0410313
0.0411581
0.0414131
0.0418033
0.0423385
0.043032
0.0439011
0.0449657
0.0462465
0.0477578
0.0410878
0.0412252
0.0415023
0.0419277
0.0425138
0.0432787
0.044247
0.0454512
0.0469322
0.0487326
0.0411182
0.0412605
0.0415491
0.0419929
0.0426063
0.0434104
0.0444363
0.0457299
0.0473628
0.0494553
0.0297947
0.0297944
0.0297924
0.0297878
0.0297799
0.0297696
0.0297634
0.0297802
0.0298677
0.0301409
0.0297698
0.0297762
0.0297872
0.0298013
0.0298162
0.0298296
0.0298399
0.0298478
0.0298563
0.0298646
0.0297853
0.0297999
0.0298272
0.0298648
0.0299085
0.0299521
0.0299861
0.0299947
0.0299487
0.029788
0.0298374
0.0298621
0.0299094
0.0299765
0.0300586
0.0301474
0.0302299
0.0302845
0.0302753
0.030143
0.0299182
0.0299546
0.0300254
0.0301283
0.030259
0.03041
0.0305691
0.0307164
0.0308211
0.0308374
0.0300166
0.0300657
0.0301622
0.0303052
0.0304923
0.0307189
0.0309767
0.0312516
0.0315212
0.031752
0.0301192
0.0301809
0.0303033
0.0304875
0.030734
0.0310428
0.0314118
0.0318358
0.0323027
0.0327897
0.030212
0.0302848
0.0304307
0.0306528
0.0309552
0.0313436
0.0318249
0.032406
0.0330905
0.0338713
0.0302819
0.0303632
0.0305271
0.0307786
0.0311256
0.03158
0.0321587
0.0328856
0.0337917
0.0349083
0.0303192
0.0304047
0.0305783
0.0308461
0.0312184
0.0317112
0.0323502
0.0331762
0.0342584
0.0357214
0.017928
0.0179217
0.0179084
0.0178878
0.0178603
0.0178281
0.0177983
0.0177893
0.0178437
0.01806
0.0179463
0.0179426
0.0179341
0.0179198
0.0178982
0.017868
0.017829
0.0177832
0.0177348
0.0176855
0.0179818
0.0179811
0.017978
0.0179704
0.0179543
0.0179242
0.0178713
0.0177819
0.0176312
0.0173691
0.0180333
0.0180364
0.0180405
0.0180425
0.0180369
0.018015
0.0179632
0.0178605
0.0176734
0.017349
0.0180978
0.0181058
0.0181196
0.0181358
0.0181484
0.0181479
0.0181195
0.0180412
0.0178808
0.0175928
0.0181698
0.0181838
0.0182097
0.0182445
0.018283
0.0183167
0.0183327
0.0183116
0.0182255
0.0180358
0.0182422
0.0182626
0.0183019
0.0183581
0.0184277
0.0185048
0.0185803
0.0186404
0.0186636
0.0186177
0.0183065
0.0183332
0.0183854
0.0184628
0.0185642
0.0186874
0.0188294
0.0189845
0.0191418
0.0192799
0.0183548
0.0183863
0.018449
0.0185437
0.0186718
0.0188354
0.0190384
0.0192868
0.0195886
0.0199488
0.0183805
0.0184145
0.018483
0.0185876
0.0187312
0.0189192
0.0191611
0.0194748
0.0198941
0.0204869
0.00596063
0.00595492
0.00594288
0.00592354
0.00589553
0.00585724
0.00580738
0.00574625
0.00567885
0.00562251
0.00596982
0.00596449
0.00595305
0.00593412
0.00590551
0.00586415
0.00580586
0.00572508
0.0056139
0.00545911
0.00598366
0.00597877
0.00596794
0.00594927
0.00591953
0.00587378
0.00580451
0.00570015
0.0055421
0.00529855
0.00600198
0.00599777
0.00598809
0.00597058
0.00594118
0.00589354
0.00581793
0.00569951
0.00551556
0.00523129
0.00602401
0.00602088
0.00601324
0.00599849
0.00597218
0.00592728
0.00585317
0.00573392
0.00554601
0.00525541
0.00604821