/*--------------------------------*- C++ -*----------------------------------*\
| =========                 |                                                 |
| \\      /  F ield         | OpenFOAM: The Open Source CFD Toolbox           |
|  \\    /   O peration     | Version:  2.4.0                                 |
|   \\  /    A nd           | Web:      www.OpenFOAM.org                      |
|    \\/     M anipulation  |                                                 |
\*---------------------------------------------------------------------------*/
FoamFile
{
    version     2.0;
    format      ascii;
    class       volScalarField;
    location    "0.015";
    object      phi;
}
// * * * * * * * * * * * * * * * * * * * * * * * * * * * * * * * * * * * * * //

dimensions      [1 2 -3 0 0 -1 0];

internalField   nonuniform List<scalar> 
9000
(
0.00898772
0.00900953
0.00905129
0.00910933
0.00917804
0.0092499
0.00931553
0.00936398
0.0093831
0.00936034
0.00920402
0.00923199
0.00928601
0.00936216
0.0094544
0.00955444
0.00965171
0.00973345
0.00978514
0.00979134
0.00964275
0.00968402
0.00976453
0.00988005
0.0100238
0.0101861
0.010354
0.0105109
0.0106372
0.0107108
0.0103157
0.0103794
0.0105048
0.0106877
0.0109205
0.011192
0.0114857
0.0117792
0.0120437
0.0122454
0.0112394
0.0113378
0.0115332
0.011822
0.0121971
0.0126464
0.0131497
0.0136765
0.014184
0.0146176
0.0124334
0.0125831
0.0128826
0.0133313
0.0139255
0.0146548
0.0154976
0.0164145
0.0173425
0.0181921
0.0139171
0.01414
0.0145896
0.0152725
0.0161944
0.0173548
0.018738
0.0203001
0.0219533
0.0235523
0.0157063
0.0160302
0.0166892
0.0177043
0.0191027
0.0209102
0.023137
0.0257542
0.028657
0.0316189
0.0178076
0.0182657
0.0192058
0.0206752
0.0227423
0.0254893
0.0289963
0.0333045
0.0383457
0.0438178
0.0202133
0.020842
0.0221433
0.0242063
0.0271689
0.031218
0.0365816
0.0434959
0.0521101
0.0622382
0.0238683
0.0238905
0.0239312
0.0239826
0.0240338
0.0240701
0.0240746
0.024028
0.0239102
0.0237015
0.0243276
0.0243579
0.0244144
0.0244888
0.024569
0.024639
0.0246797
0.0246695
0.0245852
0.0244039
0.0252523
0.0252995
0.0253894
0.0255124
0.0256542
0.0257961
0.0259148
0.0259833
0.0259724
0.025852
0.0266532
0.0267281
0.0268725
0.027075
0.0273186
0.02758
0.0278296
0.0280322
0.028148
0.0281351
0.0285446
0.0286604
0.0288855
0.0292068
0.0296035
0.0300466
0.0304981
0.0309107
0.0312292
0.0313928
0.030941
0.031114
0.031453
0.0319428
0.0325591
0.0332664
0.034016
0.034745
0.0353758
0.0358195
0.0338528
0.0341033
0.0345969
0.0353176
0.0362382
0.0373174
0.0384947
0.0396876
0.0407884
0.041667
0.0372823
0.0376339
0.0383308
0.0393577
0.0406873
0.0422744
0.0440483
0.0459045
0.0476973
0.0492381
0.0412175
0.0416971
0.0426521
0.0440715
0.0459324
0.0481909
0.050771
0.0535481
0.0563328
0.0588582
0.0456284
0.0462637
0.0475346
0.0494386
0.0519633
0.0550752
0.058702
0.0627083
0.0668632
0.0708053
0.0326185
0.032611
0.0325926
0.0325565
0.0324932
0.0323905
0.0322341
0.0320088
0.0316992
0.0312907
0.0330984
0.0330957
0.0330866
0.0330639
0.0330171
0.0329329
0.0327957
0.0325887
0.0322944
0.0318967
0.0340595
0.0340669
0.0340772
0.0340824
0.0340701
0.0340248
0.033928
0.0337595
0.0334983
0.0331241
0.0355042
0.0355275
0.0355689
0.0356185
0.0356615
0.035679
0.035648
0.035543
0.0353371
0.0350035
0.0374341
0.0374802
0.0375662
0.03768
0.0378035
0.0379128
0.0379791
0.0379693
0.0378478
0.0375786
0.0398482
0.0399253
0.040072
0.0402737
0.0405078
0.0407448
0.0409477
0.0410736
0.041075
0.0409031
0.0427406
0.0428582
0.0430845
0.0434017
0.0437826
0.0441904
0.0445784
0.044891
0.0450656
0.0450353
0.0460977
0.0462664
0.0465935
0.0470579
0.0476271
0.0482562
0.0488872
0.0494491
0.0498595
0.0500285
0.0498955
0.0501268
0.0505775
0.0512234
0.0520265
0.0529334
0.0538731
0.0547568
0.0554782
0.0559176
0.0540975
0.0544029
0.0550004
0.0558629
0.056947
0.0581904
0.0595086
0.0607927
0.0619085
0.0626999
0.0355287
0.0354941
0.0354226
0.0353103
0.0351512
0.034938
0.0346624
0.0343157
0.0338895
0.0333762
0.0359226
0.0358899
0.0358222
0.0357152
0.0355623
0.0353558
0.0350867
0.0347455
0.0343228
0.0338103
0.036709
0.0366803
0.0366204
0.0365242
0.0363844
0.0361919
0.0359363
0.0356065
0.0351915
0.0346812
0.0378849
0.0378626
0.0378149
0.0377359
0.0376167
0.0374465
0.0372127
0.0369016
0.0364997
0.035994
0.0394453
0.0394319
0.0394015
0.0393467
0.039257
0.0391189
0.0389167
0.0386335
0.0382517
0.037755
0.0413816
0.0413801
0.0413728
0.0413505
0.0413004
0.0412059
0.0410473
0.0408031
0.040451
0.0399695
0.0436812
0.043695
0.0437171
0.0437367
0.043738
0.0437003
0.0435993
0.0434078
0.0430972
0.0426397
0.0463261
0.0463587
0.0464175
0.0464892
0.0465547
0.0465887
0.0465613
0.0464383
0.0461836
0.0457611
0.0492921
0.0493473
0.04945
0.0495846
0.0497279
0.0498497
0.0499131
0.0498761
0.0496935
0.0493193
0.0525481
0.0526295
0.0527834
0.0529914
0.0532263
0.0534518
0.0536236
0.0536907
0.0535972
0.0532855
0.034169
0.0341217
0.0340262
0.0338803
0.0336813
0.0334258
0.03311
0.0327301
0.0322826
0.0317648
0.034457
0.0344103
0.0343157
0.0341711
0.0339735
0.0337192
0.0334042
0.0330243
0.0325757
0.0320553
0.035031
0.0349854
0.0348928
0.0347509
0.0345562
0.0343045
0.0339912
0.0336115
0.0331609
0.0326355
0.0358869
0.035843
0.0357535
0.0356158
0.0354258
0.0351784
0.034868
0.034489
0.0340357
0.0335034
0.0370181
0.0369765
0.0368916
0.0367599
0.0365765
0.0363354
0.0360298
0.0356524
0.0351963
0.0346554
0.0384154
0.038377
0.038298
0.0381744
0.0380002
0.0377679
0.0374691
0.0370948
0.0366364
0.0360859
0.0400664
0.0400321
0.0399609
0.0398477
0.0396853
0.0394647
0.0391755
0.0388065
0.0383468
0.0377862
0.0419556
0.0419263
0.0418646
0.0417644
0.041617
0.0414114
0.0411349
0.0407738
0.0403144
0.0397439
0.0440638
0.0440405
0.0439902
0.0439056
0.0437764
0.0435893
0.0433289
0.0429786
0.0425216
0.0419419
0.0463678
0.0463516
0.0463145
0.0462482
0.0461404
0.0459753
0.0457345
0.0453982
0.0449459
0.0443581
0.030089
0.0300417
0.0299465
0.0298028
0.0296096
0.0293656
0.0290697
0.0287206
0.0283176
0.0278602
0.0302868
0.0302394
0.0301442
0.0300004
0.0298068
0.0295623
0.0292654
0.0289148
0.0285097
0.0280495
0.0306805
0.0306331
0.0305379
0.0303938
0.0301996
0.0299539
0.0296551
0.0293017
0.0288924
0.0284266
0.0312666
0.0312192
0.0311239
0.0309795
0.0307846
0.0305373
0.0302358
0.0298781
0.0294628
0.0289887
0.0320397
0.0319923
0.031897
0.0317523
0.0315564
0.0313073
0.0310023
0.0306393
0.0302161
0.0297313
0.0329922
0.032945
0.0328498
0.0327049
0.0325081
0.0322568
0.0319479
0.0315786
0.031146
0.0306481
0.0341149
0.0340679
0.0339729
0.033828
0.0336305
0.033377
0.0330638
0.0326873
0.032244
0.031731
0.0353961
0.0353495
0.035255
0.0351103
0.0349122
0.0346566
0.034339
0.0339547
0.0334996
0.0329698
0.0368224
0.0367762
0.0366825
0.0365384
0.03634
0.0360824
0.0357603
0.0353679
0.0348999
0.0343518
0.0383783
0.0383326
0.0382398
0.0380966
0.0378982
0.0376389
0.0373123
0.0369115
0.03643
0.035862
0.0244157
0.0243755
0.024295
0.0241741
0.0240125
0.0238101
0.0235667
0.0232824
0.0229575
0.0225924
0.0245455
0.0245051
0.0244243
0.0243029
0.0241407
0.0239374
0.0236929
0.0234072
0.0230804
0.0227131
0.0248036
0.024763
0.0246817
0.0245594
0.0243959
0.0241908
0.023944
0.0236554
0.023325
0.0229534
0.0251877
0.0251467
0.0250645
0.0249409
0.0247755
0.0245678
0.0243177
0.0240247
0.0236891
0.023311
0.0256938
0.0256523
0.025569
0.0254437
0.0252758
0.0250648
0.0248102
0.0245117
0.024169
0.0237824
0.0263167
0.0262746
0.02619
0.0260626
0.0258917
0.0256766
0.0254167
0.0251113
0.0247601
0.0243632
0.02705
0.0270072
0.0269211
0.0267913
0.026617
0.0263972
0.026131
0.0258177
0.0254565
0.0250474
0.027886
0.0278424
0.0277547
0.0276222
0.027444
0.0272189
0.0269457
0.0266234
0.026251
0.0258281
0.0288158
0.0287713
0.0286818
0.0285464
0.028364
0.0281331
0.0278523
0.02752
0.0271352
0.026697
0.0298291
0.0297838
0.0296924
0.029554
0.029367
0.02913
0.0288408
0.0284979
0.0280997
0.0276451
0.0178642
0.0178346
0.0177752
0.0176863
0.0175678
0.01742
0.0172431
0.0170374
0.0168035
0.016542
0.0179445
0.0179147
0.0178551
0.0177658
0.0176468
0.0174983
0.0173205
0.0171138
0.0168786
0.0166157
0.0181043
0.0180743
0.0180141
0.017924
0.0178039
0.017654
0.0174745
0.0172657
0.0170281
0.0167623
0.0183419
0.0183115
0.0182506
0.0181593
0.0180376
0.0178856
0.0177036
0.0174917
0.0172504
0.0169804
0.0186548
0.0186239
0.018562
0.0184692
0.0183454
0.0181908
0.0180053
0.0177894
0.0175433
0.0172677
0.0190399
0.0190083
0.0189453
0.0188506
0.0187242
0.0185662
0.0183767
0.0181557
0.0179038
0.0176213
0.019493
0.0194607
0.0193962
0.0192993
0.01917
0.0190081
0.0188138
0.018587
0.0183281
0.0180375
0.0200094
0.0199763
0.0199102
0.0198108
0.0196781
0.0195118
0.019312
0.0190786
0.0188118
0.0185121
0.0205836
0.0205496
0.0204817
0.0203796
0.0202431
0.020072
0.0198661
0.0196253
0.0193499
0.01904
0.0212096
0.0211746
0.0211048
0.0209997
0.0208591
0.0206827
0.0204702
0.0202215
0.0199365
0.0196155
0.0108575
0.0108396
0.0108036
0.0107499
0.0106783
0.0105893
0.0104829
0.0103595
0.0102195
0.0100635
0.010901
0.010883
0.0108469
0.0107929
0.010721
0.0106315
0.0105246
0.0104007
0.01026
0.0101031
0.0109875
0.0109693
0.0109329
0.0108784
0.0108059
0.0107156
0.0106077
0.0104825
0.0103405
0.010182
0.0111161
0.0110977
0.0110608
0.0110056
0.0109321
0.0108406
0.0107312
0.0106042
0.0104601
0.0102994
0.0112855
0.0112668
0.0112293
0.0111731
0.0110984
0.0110052
0.0108938
0.0107646
0.0106178
0.0104539
0.0114939
0.0114748
0.0114365
0.0113792
0.0113029
0.0112078
0.011094
0.0109619
0.0108117
0.0106441
0.0117392
0.0117196
0.0116804
0.0116217
0.0115436
0.0114462
0.0113296
0.0111941
0.01104
0.010868
0.0120187
0.0119986
0.0119584
0.0118982
0.011818
0.0117179
0.0115981
0.0114587
0.0113003
0.0111232
0.0123295
0.0123089
0.0122676
0.0122056
0.0121231
0.0120201
0.0118967
0.0117532
0.0115898
0.011407
0.0126683
0.0126471
0.0126046
0.0125409
0.0124558
0.0123496
0.0122224
0.0120742
0.0119055
0.0117167
0.00363947
0.00363347
0.00362148
0.00360354
0.0035797
0.00355002
0.00351462
0.00347359
0.0034271
0.00337532
0.00365321
0.00364718
0.00363514
0.00361712
0.00359317
0.00356336
0.00352779
0.00348658
0.00343986
0.00338783
0.00368054
0.00367446
0.00366232
0.00364414
0.00361997
0.0035899
0.003554
0.0035124
0.00346524
0.00341271
0.00372119
0.00371503
0.00370272
0.00368431
0.00365982
0.00362935
0.00359297
0.0035508
0.00350298
0.0034497
0.00377471
0.00376845
0.00375594
0.00373721
0.00371231
0.0036813
0.00364428
0.00360136
0.00355269
0.00349843
0.00384056
0.00383417
0.0038214
0.00380229
0.00377687
0.00374522
0.00370742
0.00366358
0.00361385
0.00355839
0.00391804
0.00391151
0.00389845
0.00387889
0.00385287
0.00382046
0.00378174
0.00373682
0.00368584
0.00362898
0.00400637
0.00399966
0.00398627
0.0039662
0.00393951
0.00390623
0.00386647
0.00382032
0.00376792
0.00370945
0.00410462
0.00409772
0.00408395
0.00406332
0.00403586
0.00400163
0.00396071
0.00391319
0.00385922
0.00379897
0.00421179
0.00420466
0.00419047
0.00416923
0.00414094
0.00410567
0.00406348
0.00401448
0.00395879
0.00389659
0.0442876
0.0467699
0.0520244
0.0606759
0.073782
0.0930023
0.120866
0.161179
0.219617
0.304619
0.0499508
0.0525501
0.0580428
0.0670622
0.0806783
0.100565
0.129264
0.170585
0.230185
0.316443
0.0506789
0.0532797
0.0587754
0.0677992
0.0814208
0.101314
0.130019
0.171347
0.230952
0.317212
0.0508011
0.0534016
0.0588969
0.0679203
0.0815413
0.101433
0.130138
0.171464
0.231068
0.317326
0.0508253
0.053426
0.0589215
0.0679449
0.081566
0.101458
0.130162
0.171489
0.231093
0.317351
0.0508266
0.053427
0.0589222
0.0679454
0.0815663
0.101458
0.130162
0.171488
0.231092
0.31735
0.0508123
0.053413
0.0589084
0.0679319
0.081553
0.101445
0.13015
0.171476
0.23108
0.317339
0.0507292
0.0533299
0.0588255
0.0678492
0.0814707
0.101363
0.130068
0.171396
0.231001
0.31726
0.0501797
0.052779
0.0582719
0.0672917
0.0809083
0.100795
0.129495
0.170817
0.230417
0.316676
0.0452351
0.0477206
0.0529813
0.0616418
0.07476
0.0939954
0.121878
0.162216
0.22069
0.305749
0.0889968
0.0912679
0.0958709
0.10292
0.112566
0.124958
0.14018
0.158131
0.17833
0.199564
0.102325
0.104724
0.10958
0.117002
0.127131
0.140098
0.155964
0.174591
0.195447
0.217249
0.104295
0.106694
0.111552
0.118976
0.129105
0.142073
0.157936
0.176558
0.197403
0.219188
0.104643
0.107042
0.111899
0.119322
0.12945
0.142415
0.158276
0.176894
0.197735
0.219516
0.104708
0.107107
0.111963
0.119385
0.129512
0.142477
0.158336
0.176954
0.197793
0.219573
0.104717
0.107117
0.111974
0.119396
0.129524
0.142489
0.158349
0.176967
0.197808
0.219588
0.104672
0.107071
0.111928
0.11935
0.129478
0.142443
0.158302
0.176921
0.197761
0.219541
0.10444
0.106839
0.111697
0.11912
0.12925
0.142217
0.158079
0.1767
0.197544
0.219328
0.102987
0.105387
0.110244
0.117668
0.127798
0.140767
0.156635
0.175265
0.196123
0.217927
0.0917849
0.0940707
0.0987036
0.105799
0.115508
0.127983
0.143311
0.161399
0.181774
0.20324
0.0949678
0.0960336
0.0981422
0.101242
0.105246
0.110011
0.115329
0.120896
0.126296
0.13099
0.111133
0.112262
0.114493
0.117766
0.121981
0.126979
0.13253
0.138303
0.143853
0.148607
0.113904
0.11503
0.117257
0.120524
0.124729
0.129715
0.135249
0.140999
0.146521
0.151239
0.114424
0.11555
0.117775
0.121039
0.125242
0.130224
0.135752
0.141498
0.147013
0.151724
0.114535
0.115662
0.117887
0.121152
0.125354
0.130337
0.135865
0.14161
0.147126
0.151837
0.114536
0.115662
0.117886
0.12115
0.125352
0.130333
0.135861
0.141605
0.147119
0.151829
0.114477
0.115604
0.117829
0.121094
0.125296
0.130279
0.135807
0.141553
0.147068
0.15178
0.114128
0.115254
0.117481
0.120747
0.124952
0.129937
0.135469
0.141218
0.146738
0.151454
0.112144
0.113273
0.115504
0.118778
0.122994
0.127993
0.133544
0.139318
0.144867
0.14962
0.099269
0.100355
0.102504
0.105665
0.10975
0.114618
0.12006
0.125777
0.131359
0.13628
0.0840135
0.0843615
0.0850354
0.0859908
0.0871596
0.0884492
0.089742
0.0908961
0.0917491
0.0921255
0.0997862
0.100148
0.100847
0.101833
0.103032
0.104341
0.105631
0.106746
0.107512
0.107738
0.102913
0.103271
0.103962
0.104937
0.10612
0.107408
0.108671
0.109755
0.110482
0.110664
0.103546
0.103904
0.104594
0.105566
0.106745
0.108029
0.109287
0.110365
0.111086
0.11126
0.103668
0.104024
0.104713
0.105684
0.106862
0.108144
0.109401
0.110477
0.111195
0.111366
0.10369
0.104047
0.104737
0.105709
0.106888
0.108171
0.109429
0.110505
0.111225
0.111398
0.103602
0.103958
0.104648
0.105619
0.106798
0.108081
0.109338
0.110415
0.111134
0.111307
0.103193
0.103551
0.104242
0.105216
0.106398
0.107684
0.108946
0.110028
0.110753
0.110932
0.101041
0.101403
0.102102
0.103089
0.104288
0.105596
0.106884
0.107997
0.108759
0.10898
0.0892985
0.0896661
0.0903789
0.0913917
0.0926353
0.0940159
0.0954142
0.0966876
0.0976745
0.098205
0.0685554
0.0686089
0.0687056
0.0688243
0.0689342
0.0689951
0.0689596
0.0687745
0.0683839
0.0677324
0.0823469
0.0823921
0.0824704
0.0825586
0.082622
0.0826166
0.0824896
0.0821827
0.0816346
0.0807849
0.0854502
0.0854905
0.0855594
0.0856332
0.0856775
0.0856478
0.0854914
0.0851495
0.0845607
0.0836647
0.0861153
0.0861543
0.086221
0.0862918
0.0863321
0.0862974
0.086135
0.0857862
0.0851896
0.0842848
0.0862686
0.0863085
0.0863756
0.0864466
0.0864868
0.086452
0.0862894
0.0859404
0.0853435
0.0844386
0.0862664
0.0863049
0.0863711
0.0864413
0.0864807
0.0864451
0.0862815
0.0859313
0.0853331
0.0844265
0.0861907
0.0862303
0.0862974
0.0863684
0.0864088
0.0863743
0.086212
0.0858634
0.085267
0.0843624
0.0857557
0.0857956
0.0858638
0.0859367
0.0859798
0.0859485
0.08579
0.0854459
0.0848544
0.0839553
0.0836963
0.0837405
0.0838176
0.0839038
0.0839646
0.0839554
0.0838234
0.0835099
0.0829532
0.0820928
0.0742434
0.074315
0.0744468
0.0746167
0.074792
0.0749305
0.074982
0.0748897
0.0745943
0.0740376
0.0533413
0.0533028
0.0532212
0.0530887
0.0528935
0.0526212
0.052255
0.0517771
0.0511696
0.0504161
0.06454
0.064486
0.0643736
0.0641938
0.0639335
0.0635766
0.0631044
0.0624972
0.0617354
0.0608009
0.067359
0.0673008
0.0671795
0.0669862
0.0667078
0.0663281
0.0658286
0.0651893
0.0643908
0.0634151
0.0680037
0.0679449
0.0678221
0.0676262
0.0673445
0.0669605
0.0664559
0.0658107
0.0650055
0.0640224
0.0681314
0.0680714
0.0679475
0.0677507
0.0674678
0.0670825
0.0665763
0.0659292
0.0651219
0.0641362
0.0681584
0.0680997
0.0679766
0.0677804
0.067498
0.0671133
0.0666077
0.0659616
0.0651552
0.0641708
0.0680628
0.0680032
0.0678798
0.0676834
0.0674011
0.0670165
0.066511
0.0658649
0.0650585
0.0640741
0.0676617
0.0676032
0.0674813
0.067287
0.0670074
0.0666261
0.0661246
0.065483
0.0646818
0.0637031
0.0658673
0.065813
0.0656992
0.0655169
0.065253
0.0648912
0.0644125
0.063797
0.0630248
0.0620776
0.0588389
0.0588154
0.0587636
0.0586744
0.0585346
0.0583272
0.0580323
0.0576275
0.0570891
0.0563923
0.0395702
0.039516
0.0394064
0.0392387
0.0390091
0.0387129
0.0383449
0.0379
0.0373731
0.0367603
0.0480926
0.0480245
0.0478867
0.047676
0.0473884
0.0470186
0.046561
0.0460098
0.0453597
0.0446062
0.0504278
0.0503557
0.0502101
0.0499879
0.0496849
0.049296
0.0488155
0.0482376
0.0475571
0.0467697
0.0509816
0.0509084
0.0507611
0.0505364
0.0502302
0.0498373
0.049352
0.0487686
0.0480819
0.0472874
0.0511177
0.0510452
0.050898
0.0506733
0.0503668
0.0499736
0.0494879
0.0489041
0.048217
0.0474222
0.0511133
0.0510398
0.050892
0.0506669
0.05036
0.0499663
0.0494801
0.0488956
0.0482075
0.0474116
0.0510501
0.0509775
0.0508303
0.0506057
0.0502994
0.0499065
0.0494211
0.0488377
0.0481509
0.0473565
0.0506963
0.0506238
0.0504776
0.0502544
0.0499502
0.0495596
0.0490772
0.048497
0.0478138
0.0470234
0.0492536
0.0491843
0.0490443
0.0488304
0.0485384
0.0481628
0.0476976
0.047137
0.0464753
0.0457078
0.0443691
0.0443269
0.0442404
0.0441061
0.0439188
0.0436718
0.0433569
0.0429646
0.0424837
0.0419006
0.0272307
0.0271868
0.0270985
0.026965
0.0267854
0.0265584
0.026283
0.0259578
0.025582
0.0251552
0.0331604
0.0331058
0.0329961
0.0328307
0.0326083
0.0323277
0.0319875
0.0315866
0.031124
0.0305994
0.0349038
0.0348464
0.0347311
0.0345572
0.0343235
0.0340288
0.0336718
0.0332514
0.0327668
0.0322176
0.0353367
0.0352789
0.0351626
0.0349869
0.034751
0.0344535
0.0340931
0.0336688
0.0331798
0.0326258
0.0354236
0.0353652
0.0352484
0.0350723
0.0348358
0.0345376
0.0341763
0.033751
0.0332607
0.0327052
0.035445
0.0353872
0.0352707
0.0350947
0.0348583
0.0345602
0.0341992
0.0337741
0.0332843
0.0327293
0.0353773
0.0353191
0.0352025
0.0350267
0.0347905
0.0344926
0.0341318
0.033707
0.0332173
0.0326625
0.0351159
0.0350583
0.0349425
0.0347679
0.0345332
0.0342372
0.0338787
0.0334565
0.0329697
0.0324182
0.0340718
0.0340165
0.0339051
0.0337368
0.0335105
0.0332246
0.0328778
0.0324687
0.0319962
0.0314598
0.0309066
0.0308699
0.0307957
0.0306826
0.0305285
0.0303305
0.030085
0.0297875
0.029432
0.0290105
0.0159275
0.0159003
0.015846
0.0157645
0.0156554
0.0155186
0.015354
0.0151616
0.0149414
0.0146938
0.0194186
0.0193852
0.0193181
0.0192174
0.0190828
0.0189142
0.0187114
0.0184745
0.0182037
0.0178995
0.0204864
0.0204511
0.0203807
0.0202748
0.0201333
0.0199561
0.0197432
0.0194944
0.0192102
0.018891
0.0207544
0.0207187
0.0206475
0.0205405
0.0203976
0.0202186
0.0200034
0.0197522
0.019465
0.0191426
0.0208239
0.0207883
0.0207169
0.0206097
0.0204664
0.020287
0.0200715
0.0198199
0.0195324
0.0192095
0.0208198
0.020784
0.0207127
0.0206055
0.0204623
0.020283
0.0200674
0.0198156
0.0195279
0.0192047
0.02079
0.0207544
0.0206831
0.020576
0.0204329
0.0202538
0.0200384
0.019787
0.0194998
0.0191771
0.0206206
0.0205852
0.0205144
0.020408
0.0202659
0.0200878
0.0198738
0.0196239
0.0193382
0.0190174
0.0199896
0.0199554
0.019887
0.0197843
0.0196468
0.0194745
0.019267
0.0190243
0.0187465
0.0184339
0.018223
0.0181991
0.0181509
0.0180777
0.0179787
0.0178526
0.0176976
0.0175115
0.0172914
0.0170333
0.00524327
0.00523421
0.00521608
0.0051889
0.00515265
0.00510735
0.00505303
0.00498974
0.00491761
0.0048368
0.00639233
0.00638118
0.00635888
0.0063254
0.00628075
0.00622496
0.00615806
0.00608016
0.00599141
0.00589203
0.00675372
0.00674196
0.00671845
0.0066832
0.00663622
0.00657754
0.00650721
0.00642536
0.00633213
0.00622777
0.00684689
0.00683499
0.0068112
0.00677555
0.00672806
0.00666876
0.0065977
0.00651501
0.00642084
0.00631545
0.00686508
0.00685324
0.00682953
0.00679391
0.0067464
0.00668701
0.00661583
0.00653295
0.00643856
0.0063329
0.00687074
0.00685878
0.0068349
0.00679915
0.00675153
0.00669208
0.00662087
0.006538
0.00644365
0.00633804
0.00685532
0.00684347
0.00681974
0.00678414
0.00673665
0.00667732
0.00660621
0.00652343
0.00642915
0.00632362
0.00680022
0.0067884
0.00676477
0.00672934
0.00668212
0.00662314
0.00655246
0.00647018
0.00637647
0.00627157
0.00658968
0.00657825
0.00655541
0.00652112
0.00647539
0.00641821
0.00634958
0.00626959
0.00617833
0.00607601
0.0060182
0.00600976
0.00599277
0.00596701
0.00593212
0.00588766
0.00583301
0.00576745
0.00569004
0.00559965
0.0214814
0.0220604
0.0232477
0.0251012
0.0277007
0.031132
0.0354473
0.0405724
0.0460927
0.0507515
0.0191219
0.0195315
0.0203615
0.021631
0.023357
0.0255365
0.0281099
0.0308952
0.0334784
0.0350634
0.017071
0.0173529
0.0179177
0.0187647
0.0198832
0.0212392
0.0227523
0.024262
0.0254847
0.0259797
0.0153272
0.0155162
0.015891
0.016443
0.017153
0.0179826
0.0188622
0.019673
0.0202271
0.0202454
0.0138751
0.0139975
0.0142378
0.0145852
0.0150201
0.0155091
0.0159987
0.0164068
0.0166127
0.016445
0.0126945
0.0127691
0.0129132
0.0131162
0.0133601
0.0136172
0.0138477
0.0139964
0.0139902
0.0137368
0.0117672
0.011807
0.0118816
0.0119802
0.0120859
0.0121745
0.0122142
0.0121658
0.0119853
0.0116314
0.0110798
0.0110948
0.0111194
0.0111424
0.0111464
0.0111074
0.0109947
0.0107729
0.0104076
0.0098785
0.0106243
0.0106229
0.0106143
0.0105863
0.0105199
0.0103884
0.0101564
0.0097797
0.00920848
0.00840091
0.0103972
0.0103875
0.010362
0.0103077
0.0102042
0.0100217
0.00971817
0.00923444
0.00848337
0.00732397
0.0502166
0.0508667
0.0521598
0.0540774
0.0565751
0.0595573
0.0628293
0.0660042
0.068308
0.0681337
0.045989
0.0464923
0.0474909
0.048967
0.0508849
0.0531812
0.0557531
0.0584526
0.0611203
0.0637719
0.0422036
0.0425915
0.0433626
0.044507
0.0460092
0.0478516
0.0500276
0.0525797
0.0557044
0.0600093
0.0388711
0.0391665
0.0397556
0.0406354
0.0418047
0.0432718
0.0450687
0.0472812
0.0501005
0.0538932
0.0359899
0.0362071
0.0366409
0.0372903
0.0381573
0.0392527
0.0406043
0.0422676
0.0443321
0.0469019
0.0335584
0.0337068
0.0340019
0.0344397
0.0350168
0.0357332
0.0365952
0.037617
0.0388139
0.0401741
0.0315821
0.0316699
0.0318412
0.0320858
0.0323896
0.0327356
0.0331044
0.033475
0.0338242
0.034122
0.0300746
0.0301119
0.0301786
0.0302569
0.0303199
0.0303299
0.0302381
0.0299856
0.0295124
0.0287834
0.0290544
0.0290547
0.0290441
0.0289976
0.0288752
0.0286181
0.0281431
0.0273376
0.026062
0.024183
0.0285391
0.02852
0.0284679
0.0283535
0.0281281
0.0277173
0.0270084
0.0258296
0.0239079
0.0207753
0.0619459
0.0623411
0.0631121
0.0642169
0.0655766
0.0670485
0.06837
0.0690364
0.0680194
0.0630766
0.0580862
0.0584252
0.0590911
0.0600592
0.0612869
0.0627068
0.0642194
0.0656918
0.0670013
0.0682654
0.054554
0.0548509
0.0554424
0.0563262
0.0575044
0.0589947
0.060859
0.0632693
0.0666681
0.0721486
0.0513594
0.0516172
0.0521379
0.052935
0.0540389
0.0555142
0.0574907
0.0602215
0.0641807
0.0702095
0.0485114
0.0487245
0.0491587
0.0498318
0.0507807
0.0520742
0.0538344
0.0562655
0.059686
0.0645362
0.0460299
0.0461903
0.0465169
0.0470222
0.0477319
0.0486926
0.0499824
0.0517215
0.0540756
0.0572299
0.0439517
0.0440545
0.0442608
0.0445713
0.0449901
0.0455285
0.0462088
0.0470686
0.0481638
0.0495617
0.0423253
0.0423729
0.0424622
0.0425795
0.0427034
0.0428045
0.0428434
0.0427729
0.0425487
0.0421615
0.0412032
0.0412069
0.0412026
0.0411627
0.0410418
0.0407703
0.0402441
0.0393145
0.0377851
0.0354524
0.0406298
0.0406096
0.040553
0.040424
0.0401618
0.0396687
0.0387893
0.0372741
0.0347068
0.0303482
0.0626552
0.06287
0.0632854
0.0638731
0.0645791
0.0653041
0.0658623
0.0658907
0.0646434
0.0605009
0.0598489
0.0600563
0.0604639
0.0610581
0.0618142
0.0626919
0.0636279
0.0645296
0.0652919
0.0659238
0.0572206
0.0574246
0.0578342
0.0584546
0.0592987
0.0603957
0.0618116
0.0636951
0.0663861
0.0706733
0.0547799
0.0549748
0.0553728
0.0559931
0.0568735
0.058085
0.0597566
0.0621208
0.0655887
0.0708645
0.0525415
0.0527145
0.0530712
0.0536348
0.0544498
0.0555939
0.057198
0.0594731
0.0627451
0.0674765
0.0505363
0.0506729
0.0509547
0.0513998
0.0520422
0.052941
0.0541925
0.0559443
0.0584103
0.0618677
0.0488141
0.048904
0.0490871
0.0493691
0.0497628
0.0502924
0.051
0.0519554
0.0532687
0.0551009
0.0474378
0.0474788
0.0475572
0.0476633
0.0477825
0.0478955
0.0479776
0.0480047
0.0479688
0.0479212
0.0464733
0.0464736
0.0464642
0.0464203
0.0463007
0.046041
0.0455431
0.0446649
0.0432165
0.0410032
0.0459758
0.0459537
0.0458941
0.045763
0.045502
0.0450147
0.0441446
0.042634
0.0400417
0.0355664
0.0573698
0.0575059
0.0577739
0.0581679
0.0586744
0.0592659
0.0598863
0.0604185
0.0606137
0.0599293
0.0555398
0.0556826
0.0559677
0.056396
0.0569674
0.0576802
0.0585276
0.0594951
0.0605622
0.0617332
0.0537697
0.0539159
0.0542121
0.0546679
0.0553004
0.0561383
0.0572301
0.0586606
0.0605875
0.0633249
0.0520738
0.0522152
0.0525051
0.0529594
0.0536068
0.0544954
0.0557046
0.0573625
0.0596752
0.0629652
0.0504745
0.0505996
0.0508579
0.0512666
0.0518567
0.0526805
0.0538212
0.0554074
0.0576312
0.0607601
0.049008
0.0491049
0.0493051
0.0496213
0.0500775
0.0507151
0.0516005
0.052837
0.0545795
0.0570438
0.047725
0.0477853
0.0479082
0.0480975
0.0483619
0.048719
0.0492014
0.0498671
0.0508169
0.0522172
0.0466852
0.0467068
0.0467472
0.0467981
0.0468477
0.0468808
0.0468801
0.0468337
0.0467538
0.0467218
0.0459494
0.0459386
0.0459092
0.0458409
0.0457006
0.045437
0.044973
0.0441986
0.0429705
0.041151
0.0455678
0.0455393
0.0454697
0.0453316
0.0450776
0.04463
0.0438624
0.0425665
0.0403829
0.0366527
0.0489373
0.0490417
0.0492536
0.0495833
0.0500479
0.050674
0.0515036
0.052605
0.0540982
0.0562178
0.0478118
0.0479224
0.0481479
0.0484994
0.0489946
0.0496602
0.0505342
0.0516673
0.0531207
0.0549442
0.0466728
0.0467818
0.0470046
0.0473521
0.0478421
0.0484997
0.0493585
0.0504571
0.0518298
0.0534793
0.04554
0.0456391
0.0458424
0.04616
0.0466085
0.0472122
0.0480035
0.049021
0.0503048
0.0518824
0.0444419
0.0445234
0.0446909
0.0449527
0.0453234
0.0458254
0.0464905
0.0473624
0.0484981
0.0499665
0.0434164
0.0434735
0.0435909
0.0437733
0.0440303
0.0443788
0.0448457
0.0454736
0.0463297
0.047515
0.042509
0.0425379
0.0425961
0.042683
0.0427996
0.0429506
0.043148
0.0434192
0.043821
0.0444617
0.0417688
0.0417694
0.0417678
0.0417564
0.041724
0.0416566
0.0415387
0.0413597
0.0411306
0.0409194
0.0412432
0.0412207
0.04117
0.0410758
0.0409141
0.0406485
0.040226
0.0395743
0.0386039
0.0372372
0.0409702
0.0409354
0.0408568
0.0407146
0.0404758
0.0400869
0.039463
0.0384665
0.0368625
0.0342216
0.0388426
0.0389221
0.0390869
0.0393532
0.0397487
0.0403195
0.0411437
0.0423574
0.0442129
0.0472164
0.0381749
0.0382573
0.038428
0.0387007
0.0390986
0.0396572
0.0404289
0.0414875
0.0429254
0.0448191
0.0374625
0.0375389
0.0376962
0.037944
0.0382973
0.0387762
0.0394034
0.040195
0.0411362
0.0421186
0.0367264
0.0367899
0.0369198
0.0371216
0.0374033
0.0377738
0.038239
0.0387928
0.0393997
0.0399631
0.0359957
0.0360417
0.0361352
0.0362786
0.0364753
0.0367287
0.03704
0.0374043
0.0378046
0.0382034
0.0353046
0.0353304
0.0353824
0.0354603
0.0355638
0.0356935
0.03585
0.0360353
0.0362558
0.0365263
0.0346901
0.0346952
0.0347044
0.0347146
0.0347214
0.0347208
0.0347097
0.0346905
0.03468
0.0347221
0.0341885
0.0341744
0.034144
0.0340904
0.0340041
0.0338729
0.0336826
0.0334223
0.033094
0.032735
0.0338328
0.0338039
0.0337424
0.0336378
0.0334745
0.0332296
0.0328713
0.0323592
0.0316462
0.0306983
0.0336483
0.0336119
0.0335331
0.0333997
0.0331914
0.0328769
0.0324082
0.031711
0.0306621
0.0290399
0.0279234
0.0279724
0.0280755
0.0282456
0.0285055
0.0288937
0.0294755
0.0303664
0.0317807
0.0341469
0.0275406
0.0275904
0.0276943
0.0278629
0.028114
0.0284753
0.028988
0.029711
0.0307191
0.0320757
0.0271139
0.0271571
0.0272463
0.0273878
0.027591
0.027868
0.0282315
0.028686
0.0292078
0.0296924
0.0266603
0.026692
0.0267568
0.0268566
0.0269938
0.0271692
0.0273779
0.0276011
0.0277907
0.027843
0.0262028
0.0262208
0.0262569
0.0263101
0.0263785
0.0264575
0.0265367
0.0265955
0.0265968
0.0264785
0.0257675
0.0257713
0.0257781
0.0257853
0.0257886
0.0257818
0.025755
0.0256939
0.0255798
0.0253902
0.0253804
0.0253709
0.0253505
0.0253154
0.02526
0.0251769
0.0250573
0.024892
0.0246758
0.0244124
0.0250654
0.0250445
0.025001
0.0249297
0.0248236
0.0246733
0.0244678
0.0241973
0.0238576
0.0234607
0.024843
0.0248138
0.0247531
0.0246547
0.0245096
0.024305
0.0240248
0.0236502
0.0231619
0.0225502
0.024728
0.0246947
0.0246249
0.0245118
0.0243446
0.024108
0.0237801
0.0233298
0.0227092
0.0218368
0.0167156
0.0167346
0.0167749
0.0168426
0.0169484
0.0171108
0.0173618
0.0177587
0.0184095
0.0195318
0.0165165
0.0165352
0.0165745
0.0166388
0.0167359
0.0168778
0.0170825
0.0173762
0.0177913
0.0183519
0.0162896
0.0163039
0.0163333
0.0163798
0.0164459
0.0165347
0.0166476
0.0167801
0.0169099
0.0169694
0.0160456
0.0160529
0.0160673
0.0160884
0.0161144
0.0161416
0.0161612
0.0161549
0.0160859
0.0158853
0.0157983
0.0157977
0.0157957
0.0157899
0.0157764
0.0157482
0.0156932
0.0155913
0.0154106
0.0151022
0.0155632
0.0155549
0.0155371
0.0155068
0.015459
0.015386
0.0152764
0.0151141
0.0148767
0.0145353
0.0153548
0.0153398
0.0153086
0.0152576
0.015182
0.0150745
0.0149257
0.0147239
0.014456
0.0141085
0.0151862
0.0151659
0.0151239
0.0150569
0.0149599
0.0148263
0.0146482
0.0144171
0.0141255
0.0137701
0.0150677
0.0150437
0.0149944
0.0149163
0.0148043
0.0146522
0.0144523
0.0141967
0.0138792
0.0134987
0.0150067
0.0149811
0.0149279
0.014844
0.0147242
0.0145619
0.014349
0.0140765
0.0137344
0.0133112
0.00554201
0.0055435
0.00554635
0.00555094
0.00555778
0.00556786
0.00558314
0.00560773
0.00565059
0.00573247
0.00547925
0.00548038
0.00548246
0.00548529
0.00548843
0.00549112
0.00549187
0.00548768
0.0054717
0.00542684
0.00540797
0.00540763
0.00540649
0.00540358
0.0053971
0.00538391
0.00535848
0.00531078
0.00522218
0.00505699
0.00533147
0.005329
0.0053233
0.00531274
0.00529437
0.00526334
0.00521164
0.00512612
0.00498516
0.00475358
0.00525424
0.00524944
0.00523892
0.00522062
0.00519102
0.00514455
0.00507256
0.00496179
0.00479217
0.00453362
0.00518108
0.00517411
0.0051592
0.00513415