/*--------------------------------*- C++ -*----------------------------------*\
| =========                 |                                                 |
| \\      /  F ield         | OpenFOAM: The Open Source CFD Toolbox           |
|  \\    /   O peration     | Version:  2.4.0                                 |
|   \\  /    A nd           | Web:      www.OpenFOAM.org                      |
|    \\/     M anipulation  |                                                 |
\*---------------------------------------------------------------------------*/
FoamFile
{
    version     2.0;
    format      ascii;
    class       volScalarField;
    location    "0.01";
    object      phi;
}
// * * * * * * * * * * * * * * * * * * * * * * * * * * * * * * * * * * * * * //

dimensions      [1 2 -3 0 0 -1 0];

internalField   nonuniform List<scalar> 
9000
(
0.00894535
0.00896702
0.00900854
0.00906622
0.00913451
0.0092059
0.0092711
0.00931918
0.00933807
0.00931531
0.00916061
0.00918842
0.00924211
0.00931781
0.00940949
0.00950893
0.00960558
0.00968676
0.00973804
0.00974406
0.00959723
0.00963827
0.00971832
0.00983317
0.0099761
0.0101375
0.0103043
0.0104603
0.0105857
0.0106587
0.010267
0.0103303
0.010455
0.0106368
0.0108683
0.0111382
0.0114302
0.0117219
0.0119849
0.0121852
0.0111863
0.0112841
0.0114784
0.0117656
0.0121386
0.0125853
0.0130856
0.0136093
0.0141138
0.0145447
0.0123745
0.0125234
0.0128213
0.0132675
0.0138583
0.0145835
0.0154214
0.0163328
0.0172553
0.0180998
0.0138512
0.0140729
0.0145201
0.0151992
0.0161159
0.0172697
0.0186448
0.0201977
0.021841
0.0234303
0.0156319
0.0159541
0.0166095
0.0176191
0.0190098
0.020807
0.0230208
0.0256224
0.0285075
0.0314513
0.0177234
0.018179
0.0191142
0.0205757
0.0226315
0.0253632
0.0288499
0.0331322
0.0381422
0.0435799
0.0201179
0.0207434
0.0220378
0.02409
0.0270368
0.0310638
0.0363971
0.0432703
0.0518309
0.061898
0.0237565
0.0237786
0.023819
0.0238701
0.0239208
0.0239569
0.0239612
0.0239146
0.0237972
0.0235893
0.0242137
0.0242438
0.0242999
0.0243739
0.0244535
0.024523
0.0245634
0.024553
0.0244689
0.0242883
0.025134
0.025181
0.0252704
0.0253926
0.0255337
0.0256747
0.0257925
0.0258605
0.0258494
0.0257293
0.0265284
0.026603
0.0267465
0.0269479
0.0271902
0.0274501
0.0276982
0.0278995
0.0280146
0.0280014
0.0284111
0.0285263
0.0287502
0.0290698
0.0294643
0.0299051
0.030354
0.0307643
0.0310809
0.0312433
0.0307964
0.0309685
0.0313057
0.031793
0.032406
0.0331096
0.0338552
0.0345802
0.0352075
0.0356486
0.0336948
0.033944
0.0344351
0.0351521
0.036068
0.0371416
0.0383128
0.0394992
0.0405941
0.041468
0.0371085
0.0374585
0.0381518
0.0391735
0.0404964
0.0420755
0.0438402
0.0456867
0.0474701
0.0490026
0.0410258
0.0415031
0.0424533
0.0438657
0.0457173
0.0479646
0.0505316
0.0532945
0.0560649
0.058577
0.0454165
0.0460488
0.0473136
0.0492084
0.0517208
0.0548175
0.0584265
0.0624129
0.0665469
0.070469
0.0324666
0.0324591
0.0324407
0.0324047
0.0323417
0.0322393
0.0320835
0.0318592
0.0315509
0.0311442
0.0329442
0.0329415
0.0329325
0.0329098
0.0328631
0.0327792
0.0326425
0.0324363
0.0321433
0.0317473
0.033901
0.0339083
0.0339185
0.0339236
0.0339112
0.033866
0.0337695
0.0336017
0.0333416
0.032969
0.0353391
0.0353622
0.0354033
0.0354526
0.0354953
0.0355126
0.0354816
0.0353769
0.0351718
0.0348396
0.0372602
0.037306
0.0373915
0.0375047
0.0376275
0.0377361
0.0378019
0.037792
0.0376708
0.0374027
0.0396633
0.03974
0.039886
0.0400865
0.0403195
0.0405552
0.0407569
0.040882
0.0408832
0.0407118
0.0425426
0.0426596
0.0428847
0.0432003
0.0435793
0.043985
0.044371
0.044682
0.0448554
0.044825
0.0458845
0.0460524
0.0463778
0.04684
0.0474064
0.0480324
0.0486602
0.0492192
0.0496275
0.0497954
0.0496652
0.0498953
0.0503438
0.0509867
0.0517859
0.0526883
0.0536235
0.0545028
0.0552206
0.0556577
0.0538484
0.0541521
0.0547468
0.0556052
0.0566841
0.0579216
0.0592334
0.0605113
0.0616216
0.0624088
0.0353639
0.0353294
0.0352583
0.0351465
0.034988
0.0347757
0.0345013
0.0341562
0.0337319
0.0332209
0.035756
0.0357234
0.0356561
0.0355494
0.0353973
0.0351917
0.0349237
0.034584
0.0341632
0.033653
0.0365388
0.0365103
0.0364506
0.0363548
0.0362156
0.0360239
0.0357695
0.0354411
0.0350279
0.0345199
0.0377094
0.0376872
0.0376397
0.0375609
0.0374423
0.0372728
0.03704
0.0367303
0.0363301
0.0358267
0.0392627
0.0392494
0.0392191
0.0391645
0.0390751
0.0389376
0.0387363
0.0384542
0.0380742
0.0375796
0.0411903
0.0411888
0.0411814
0.0411593
0.0411093
0.0410151
0.0408572
0.040614
0.0402635
0.039784
0.0434796
0.0434933
0.0435153
0.0435347
0.0435359
0.0434983
0.0433977
0.043207
0.0428977
0.0424421
0.0461126
0.0461451
0.0462035
0.0462749
0.0463399
0.0463738
0.0463464
0.0462239
0.0459702
0.0455495
0.0490653
0.0491203
0.0492225
0.0493564
0.049499
0.0496202
0.0496832
0.0496463
0.0494644
0.0490918
0.0523064
0.0523878
0.052541
0.0527481
0.0529818
0.0532062
0.0533772
0.0534439
0.0533508
0.0530407
0.0340109
0.0339638
0.0338687
0.0337235
0.0335254
0.033271
0.0329566
0.0325784
0.032133
0.0316174
0.0342976
0.0342511
0.0341569
0.034013
0.0338163
0.0335631
0.0332495
0.0328713
0.0324247
0.0319067
0.0348691
0.0348236
0.0347314
0.0345901
0.0343963
0.0341458
0.0338338
0.0334558
0.0330072
0.0324842
0.0357211
0.0356773
0.0355883
0.0354512
0.0352619
0.0350156
0.0347067
0.0343293
0.0338781
0.0333482
0.0368472
0.0368058
0.0367212
0.0365901
0.0364075
0.0361675
0.0358632
0.0354875
0.0350334
0.034495
0.0382381
0.0381999
0.0381213
0.0379982
0.0378248
0.0375935
0.037296
0.0369234
0.036467
0.035919
0.0398818
0.0398476
0.0397767
0.039664
0.0395023
0.0392827
0.0389947
0.0386274
0.0381697
0.0376116
0.0417626
0.0417334
0.0416719
0.0415722
0.0414254
0.0412207
0.0409454
0.0405858
0.0401285
0.0395606
0.0438614
0.0438381
0.043788
0.0437038
0.0435751
0.0433888
0.0431296
0.0427809
0.0423258
0.0417487
0.0461555
0.046139
0.046102
0.046036
0.0459286
0.0457642
0.0455245
0.0451896
0.0447391
0.0441537
0.02995
0.0299029
0.0298081
0.0296651
0.0294727
0.0292298
0.0289352
0.0285877
0.0281865
0.0277311
0.0301469
0.0300997
0.0300049
0.0298618
0.0296691
0.0294256
0.02913
0.028781
0.0283777
0.0279196
0.0305389
0.0304917
0.0303968
0.0302534
0.0300601
0.0298155
0.029518
0.0291662
0.0287587
0.028295
0.0311223
0.0310751
0.0309802
0.0308365
0.0306424
0.0303962
0.0300961
0.02974
0.0293265
0.0288546
0.0318919
0.0318448
0.0317498
0.0316058
0.0314108
0.0311627
0.0308592
0.0304978
0.0300765
0.0295938
0.0328402
0.0327932
0.0326983
0.0325541
0.0323582
0.032108
0.0318005
0.0314328
0.0310022
0.0305065
0.0339578
0.033911
0.0338164
0.0336722
0.0334755
0.0332232
0.0329114
0.0325366
0.0320953
0.0315846
0.0352333
0.0351869
0.0350928
0.0349488
0.0347516
0.0344971
0.0341809
0.0337984
0.0333452
0.0328178
0.0366532
0.0366073
0.036514
0.0363705
0.036173
0.0359166
0.0355959
0.0352053
0.0347394
0.0341937
0.0382019
0.0381567
0.0380644
0.0379218
0.0377244
0.0374663
0.0371411
0.0367421
0.0362629
0.0356978
0.024303
0.024263
0.0241828
0.0240624
0.0239016
0.0237001
0.0234578
0.0231748
0.0228513
0.0224878
0.0244322
0.024392
0.0243116
0.0241907
0.0240292
0.0238268
0.0235834
0.0232989
0.0229736
0.022608
0.0246892
0.0246488
0.0245678
0.024446
0.0242832
0.0240791
0.0238334
0.0235461
0.0232172
0.0228472
0.0250715
0.0250307
0.0249489
0.0248258
0.0246611
0.0244544
0.0242054
0.0239138
0.0235796
0.0232032
0.0255754
0.025534
0.0254511
0.0253263
0.0251592
0.0249492
0.0246957
0.0243985
0.0240574
0.0236726
0.0261955
0.0261535
0.0260693
0.0259425
0.0257724
0.0255583
0.0252995
0.0249955
0.0246459
0.0242507
0.0269255
0.0268828
0.0267972
0.026668
0.0264944
0.0262756
0.0260106
0.0256987
0.0253392
0.0249319
0.0277578
0.0277143
0.027627
0.0274951
0.0273177
0.0270936
0.0268217
0.0265008
0.0261301
0.0257091
0.0286834
0.028639
0.0285499
0.0284152
0.0282336
0.0280038
0.0277242
0.0273934
0.0270103
0.0265742
0.0296926
0.0296471
0.0295561
0.0294182
0.0292322
0.0289961
0.0287083
0.0283669
0.0279703
0.0275175
0.0177818
0.0177523
0.0176932
0.0176046
0.0174867
0.0173396
0.0171634
0.0169587
0.0167258
0.0164655
0.0178618
0.0178321
0.0177728
0.0176838
0.0175653
0.0174175
0.0172405
0.0170347
0.0168006
0.0165389
0.0180208
0.0179909
0.017931
0.0178413
0.0177218
0.0175725
0.0173938
0.0171859
0.0169494
0.0166848
0.0182573
0.018227
0.0181664
0.0180755
0.0179544
0.0178031
0.0176219
0.0174109
0.0171707
0.0169019
0.0185689
0.0185381
0.0184765
0.0183841
0.0182609
0.0181069
0.0179223
0.0177073
0.0174623
0.0171879
0.0189522
0.0189208
0.018858
0.0187637
0.018638
0.0184807
0.018292
0.018072
0.0178212
0.01754
0.0194033
0.0193712
0.0193069
0.0192105
0.0190817
0.0189206
0.0187271
0.0185014
0.0182436
0.0179544
0.0199173
0.0198845
0.0198186
0.0197197
0.0195876
0.0194221
0.0192231
0.0189908
0.0187252
0.0184269
0.0204889
0.0204553
0.0203876
0.020286
0.0201501
0.0199798
0.0197748
0.0195351
0.0192609
0.0189524
0.021112
0.0210774
0.0210079
0.0209033
0.0207634
0.0205878
0.0203763
0.0201287
0.0198451
0.0195258
0.0108075
0.0107896
0.0107538
0.0107003
0.0106291
0.0105404
0.0104345
0.0103116
0.0101723
0.0100169
0.0108507
0.0108328
0.0107968
0.0107431
0.0106715
0.0105824
0.010476
0.0103526
0.0102126
0.0100564
0.0109369
0.0109187
0.0108825
0.0108282
0.010756
0.0106661
0.0105587
0.0104341
0.0102927
0.010135
0.0110649
0.0110465
0.0110098
0.0109548
0.0108817
0.0107906
0.0106817
0.0105553
0.0104118
0.0102518
0.0112335
0.0112149
0.0111775
0.0111216
0.0110472
0.0109545
0.0108436
0.0107149
0.0105688
0.0104057
0.011441
0.011422
0.0113839
0.0113268
0.0112508
0.0111561
0.0110429
0.0109113
0.0107619
0.010595
0.0116851
0.0116656
0.0116267
0.0115683
0.0114905
0.0113935
0.0112774
0.0111425
0.0109892
0.0108179
0.0119634
0.0119434
0.0119034
0.0118435
0.0117636
0.011664
0.0115447
0.011406
0.0112483
0.0110719
0.0122729
0.0122522
0.0122111
0.0121495
0.0120674
0.0119648
0.011842
0.0116991
0.0115365
0.0113545
0.0126104
0.0125891
0.0125467
0.0124832
0.0123986
0.0122929
0.0121662
0.0120187
0.0118507
0.0116626
0.00362269
0.00361671
0.00360478
0.00358692
0.00356318
0.00353364
0.00349839
0.00345754
0.00341126
0.00335971
0.00363637
0.00363037
0.00361838
0.00360043
0.00357659
0.00354691
0.0035115
0.00347047
0.00342396
0.00337216
0.00366358
0.00365752
0.00364543
0.00362733
0.00360327
0.00357333
0.00353759
0.00349618
0.00344923
0.00339693
0.00370404
0.00369791
0.00368566
0.00366732
0.00364295
0.00361261
0.00357639
0.00353441
0.00348681
0.00343377
0.00375732
0.00375109
0.00373863
0.00371999
0.0036952
0.00366433
0.00362748
0.00358475
0.0035363
0.00348228
0.00382288
0.00381652
0.00380381
0.00378478
0.00375948
0.00372798
0.00369034
0.0036467
0.00359719
0.00354199
0.00390002
0.00389351
0.00388051
0.00386104
0.00383514
0.00380288
0.00376433
0.00371961
0.00366887
0.00361226
0.00398794
0.00398128
0.00396794
0.00394796
0.00392138
0.00388826
0.00384868
0.00380274
0.00375058
0.00369238
0.00408573
0.0040789
0.00406519
0.00404465
0.00401731
0.00398324
0.0039425
0.0038952
0.00384148
0.0037815
0.00419235
0.00418533
0.00417123
0.00415007
0.00412192
0.0040868
0.00404481
0.00399604
0.00394062
0.00387874
0.0440809
0.0465514
0.0517806
0.0603902
0.0734327
0.0925595
0.120289
0.160419
0.218656
0.303528
0.0497211
0.0523078
0.0577741
0.0667501
0.0803007
0.100091
0.128652
0.169788
0.229187
0.315314
0.0504476
0.0530361
0.0585057
0.0674864
0.0810427
0.10084
0.129408
0.170551
0.229955
0.316086
0.0505693
0.0531576
0.0586268
0.0676071
0.0811628
0.100959
0.129526
0.170668
0.230071
0.3162
0.0505925
0.0531807
0.0586498
0.0676299
0.0811854
0.100981
0.129549
0.17069
0.230092
0.316221
0.0505934
0.0531815
0.0586505
0.0676306
0.081186
0.100982
0.129549
0.17069
0.230092
0.316221
0.0505751
0.0531636
0.058633
0.0676133
0.0811691
0.100966
0.129533
0.170675
0.230078
0.316207
0.05047
0.0530583
0.0585277
0.0675083
0.0810646
0.100862
0.12943
0.170572
0.229976
0.316107
0.0498161
0.0524031
0.05787
0.0668469
0.0803984
0.10019
0.128753
0.169891
0.229292
0.315423
0.0444211
0.0468896
0.0521151
0.0607194
0.0737553
0.0928749
0.120598
0.160726
0.218971
0.303875
0.0885864
0.0908467
0.0954285
0.102446
0.112048
0.124384
0.139537
0.15741
0.177521
0.198667
0.101867
0.104255
0.10909
0.11648
0.126564
0.139475
0.155273
0.173822
0.194591
0.216308
0.103825
0.106213
0.111049
0.11844
0.128524
0.141435
0.157229
0.175772
0.19653
0.218228
0.104172
0.10656
0.111395
0.118784
0.128867
0.141776
0.157568
0.176107
0.196861
0.218556
0.104241
0.106629
0.111464
0.118854
0.128937
0.141845
0.157636
0.176175
0.196929
0.218624
0.104245
0.106633
0.111469
0.118858
0.128941
0.14185
0.157641
0.176181
0.196935
0.21863
0.104186
0.106573
0.111408
0.118797
0.12888
0.141788
0.15758
0.176118
0.196872
0.218566
0.103894
0.106283
0.111119
0.11851
0.128596
0.141507
0.157302
0.175845
0.196604
0.218304
0.102137
0.104525
0.109361
0.116752
0.126839
0.139753
0.155554
0.174108
0.194883
0.216607
0.0896256
0.0918862
0.096469
0.103489
0.113099
0.125449
0.140631
0.158554
0.178752
0.200046
0.0945381
0.0955996
0.0976991
0.100786
0.104771
0.109516
0.11481
0.120352
0.125729
0.130403
0.110631
0.111754
0.113975
0.117233
0.121428
0.126405
0.13193
0.137678
0.143203
0.147936
0.113401
0.114524
0.116741
0.119994
0.124181
0.129146
0.134656
0.140382
0.145881
0.15058
0.113919
0.115041
0.117257
0.120507
0.124692
0.129653
0.135158
0.140879
0.146371
0.151064
0.114021
0.115142
0.117357
0.120607
0.124791
0.129751
0.135255
0.140975
0.146466
0.151156
0.114023
0.115144
0.117359
0.120609
0.124792
0.129752
0.135256
0.140975
0.146466
0.151156
0.113948
0.11507
0.117287
0.120538
0.124723
0.129684
0.13519
0.140911
0.146404
0.151097
0.113497
0.114619
0.116836
0.120088
0.124275
0.12924
0.134749
0.140475
0.145973
0.150672
0.111053
0.112177
0.114399
0.11766
0.121859
0.12684
0.132371
0.138125
0.143658
0.1484
0.0961546
0.0972134
0.0993084
0.102389
0.106369
0.11111
0.116408
0.121967
0.127387
0.132157
0.0836256
0.0839715
0.0846419
0.0855925
0.0867555
0.0880389
0.0893253
0.0904736
0.091322
0.0916958
0.0993478
0.0997087
0.100405
0.101388
0.102582
0.103886
0.10517
0.106282
0.107045
0.107271
0.102449
0.102805
0.103492
0.104463
0.10564
0.106921
0.108179
0.109257
0.10998
0.11016
0.10308
0.103435
0.104121
0.105089
0.106262
0.10754
0.108792
0.109864
0.110581
0.110753
0.103213
0.103568
0.104255
0.105222
0.106395
0.107673
0.108924
0.109996
0.110712
0.110883
0.103222
0.103578
0.104264
0.105232
0.106406
0.107683
0.108935
0.110007
0.110723
0.110895
0.103104
0.103459
0.104145
0.105112
0.106285
0.107562
0.108814
0.109885
0.110601
0.110773
0.102584
0.102941
0.10363
0.104601
0.105778
0.107061
0.108319
0.109399
0.110123
0.110305
0.0998512
0.100212
0.100908
0.101892
0.103087
0.104392
0.105679
0.106794
0.107561
0.107792
0.0856334
0.0859724
0.0866287
0.087558
0.0886926
0.0899411
0.0911882
0.0922968
0.0931148
0.0934871
0.0682506
0.0683045
0.0684011
0.0685196
0.0686292
0.0686902
0.0686552
0.0684714
0.068083
0.067435
0.0819702
0.0820142
0.0820914
0.0821786
0.0822412
0.0822351
0.082108
0.0818016
0.0812548
0.0804077
0.0850795
0.0851202
0.0851892
0.085263
0.0853074
0.0852781
0.0851227
0.0847828
0.0841971
0.0833056
0.0857418
0.0857813
0.0858482
0.0859191
0.0859596
0.0859254
0.0857642
0.0854175
0.0848242
0.0839241
0.0858774
0.0859163
0.0859826
0.0860527
0.0860923
0.0860571
0.0858946
0.0855464
0.0849514
0.0840494
0.0858801
0.0859186
0.0859845
0.0860543
0.0860936
0.0860581
0.0858953
0.0855466
0.0849511
0.0840485
0.0857837
0.0858239
0.0858913
0.0859626
0.0860034
0.0859696
0.0858089
0.0854627
0.08487
0.0839706
0.0852071
0.0852469
0.0853153
0.0853887
0.0854326
0.0854029
0.085247
0.0849064
0.08432
0.0834277
0.0825339
0.0825789
0.082657
0.0827449
0.0828086
0.0828038
0.0826785
0.0823745
0.0818308
0.0809877
0.0704421
0.0704862
0.0705638
0.0706538
0.0707248
0.0707371
0.0706439
0.0703944
0.0699382
0.0692317
0.0530927
0.0530537
0.0529722
0.0528399
0.0526454
0.0523739
0.052009
0.0515327
0.0509273
0.0501765
0.0642627
0.0642098
0.0640986
0.06392
0.0636613
0.0633063
0.0628368
0.0622329
0.0614751
0.0605457
0.0670513
0.0669927
0.0668716
0.0666789
0.0664015
0.0660232
0.0655254
0.0648886
0.064093
0.0631209
0.0676936
0.0676343
0.0675115
0.0673162
0.0670353
0.0666526
0.0661497
0.0655068
0.0647044
0.0637248
0.0678373
0.0677783
0.0676555
0.0674599
0.0671785
0.0667953
0.0662916
0.0656479
0.0648447
0.063864
0.067848
0.0677894
0.0676669
0.0674715
0.0671904
0.0668074
0.066304
0.0656607
0.0648578
0.0638777
0.067719
0.067659
0.0675358
0.0673401
0.0670589
0.0666759
0.0661725
0.0655291
0.0647261
0.0637456
0.0671999
0.0671422
0.0670217
0.0668293
0.0665523
0.0661745
0.0656773
0.065041
0.0642463
0.0632751
0.0647963
0.0647424
0.0646303
0.064451
0.0641916
0.0638359
0.0633656
0.062761
0.0620027
0.0610728
0.0552937
0.0552474
0.0551508
0.0549955
0.0547697
0.0544586
0.0540457
0.0535137
0.052847
0.0520334
0.0393965
0.039343
0.0392342
0.0390674
0.0388389
0.0385442
0.0381782
0.0377355
0.0372114
0.0366017
0.0478664
0.0477978
0.0476601
0.0474501
0.0471634
0.0467949
0.0463389
0.0457896
0.0451417
0.0443908
0.0502113
0.05014
0.0499953
0.0497742
0.0494726
0.0490855
0.0486073
0.0480322
0.0473549
0.0465713
0.0507628
0.0506905
0.0505441
0.0503207
0.050016
0.0496251
0.0491422
0.0485617
0.0478783
0.0470879
0.0508802
0.0508075
0.0506606
0.0504366
0.0501313
0.0497395
0.0492556
0.0486739
0.0479892
0.0471973
0.0508819
0.0508087
0.0506616
0.0504375
0.0501319
0.04974
0.0492558
0.0486739
0.0479888
0.0471965
0.0508015
0.0507297
0.0505836
0.0503603
0.0500558
0.049665
0.0491823
0.0486021
0.0479191
0.0471291
0.0503218
0.0502497
0.0501046
0.0498832
0.0495814
0.0491939
0.0487153
0.0481396
0.0474617
0.0466774
0.0483625
0.0482945
0.0481568
0.0479465
0.0476594
0.0472905
0.046834
0.0462842
0.045636
0.0448849
0.0413902
0.041332
0.0412143
0.0410343
0.0407881
0.0404709
0.0400774
0.0396022
0.0390404
0.0383875
0.0271013
0.0270573
0.0269692
0.0268362
0.0266573
0.0264313
0.0261569
0.025833
0.0254586
0.0250335
0.033021
0.0329671
0.0328582
0.0326936
0.0324723
0.032193
0.0318545
0.0314556
0.0309954
0.0304735
0.0347409
0.0346835
0.0345686
0.0343954
0.0341628
0.0338694
0.0335139
0.0330951
0.0326124
0.0320654
0.0351721
0.0351142
0.0349981
0.0348232
0.0345882
0.0342918
0.0339329
0.0335102
0.0330231
0.0324711
0.035273
0.0352152
0.035099
0.0349238
0.0346883
0.0343915
0.034032
0.0336087
0.0331208
0.0325681
0.0352812
0.0352237
0.0351077
0.0349325
0.0346972
0.0344004
0.034041
0.0336179
0.0331302
0.0325777
0.0351889
0.0351306
0.0350144
0.0348394
0.0346043
0.0343079
0.0339488
0.0335259
0.0330384
0.032486
0.034847
0.03479
0.0346753
0.0345021
0.0342694
0.0339759
0.0336205
0.0332019
0.0327193
0.0321725
0.0333947
0.0333401
0.0332306
0.0330654
0.0328434
0.0325632
0.0322236
0.0318234
0.0313616
0.030838
0.0287041
0.0286586
0.0285675
0.0284299
0.0282448
0.0280109
0.0277268
0.0273909
0.0270014
0.0265557
0.0158587
0.0158318
0.0157778
0.0156965
0.0155879
0.0154517
0.0152879
0.0150964
0.0148773
0.0146309
0.0193243
0.0192909
0.0192241
0.0191239
0.0189899
0.0188221
0.0186202
0.0183842
0.0181145
0.0178114
0.0203997
0.0203647
0.0202945
0.0201889
0.020048
0.0198716
0.0196595
0.0194119
0.019129
0.0188112
0.0206667
0.0206313
0.0205604
0.0204538
0.0203115
0.0201332
0.019919
0.0196689
0.0193832
0.0190622
0.0207245
0.020689
0.020618
0.0205112
0.0203687
0.0201901
0.0199755
0.0197249
0.0194386
0.019117
0.0207248
0.0206892
0.0206181
0.0205114
0.0203688
0.0201902
0.0199755
0.0197248
0.0194384
0.0191167
0.0206873
0.020652
0.020581
0.0204743
0.0203319
0.0201536
0.0199394
0.0196893
0.0194036
0.0190827
0.0204538
0.0204186
0.0203484
0.020243
0.0201021
0.0199256
0.0197134
0.0194656
0.0191825
0.0188644
0.0195758
0.0195423
0.0194753
0.0193747
0.0192402
0.0190717
0.0188691
0.0186325
0.0183619
0.0180578
0.0168865
0.0168592
0.0168045
0.0167224
0.0166126
0.0164749
0.0163091
0.0161148
0.0158912
0.0156366
0.00521772
0.00520875
0.00519076
0.00516375
0.00512771
0.00508263
0.00502855
0.00496554
0.0048937
0.00481322
0.0063663
0.00635512
0.0063328
0.00629937
0.00625486
0.00619927
0.00613267
0.00605513
0.00596681
0.00586792
0.00672138
0.00670976
0.00668646
0.00665145
0.00660474
0.00654636
0.00647637
0.00639487
0.00630205
0.00619813
0.00681413
0.00680234
0.00677874
0.00674332
0.00669608
0.00663707
0.00656634
0.006484
0.00639022
0.00628525
0.00683654
0.00682467
0.00680096
0.00676542
0.00671805
0.0066589
0.00658802
0.00650552
0.00641157
0.00630641
0.00683864
0.00682676
0.00680302
0.00676745
0.00672006
0.0066609
0.00659002
0.00650754
0.00641361
0.00630848
0.00681732
0.0068056
0.00678209
0.00674674
0.00669956
0.00664057
0.00656984
0.00648747
0.00639365
0.00628863
0.00674536
0.00673362
0.00671017
0.00667503
0.00662821
0.00656975
0.0064997
0.00641817
0.00632532
0.00622139
0.0064477
0.00643656
0.00641427
0.00638081
0.00633619
0.00628043
0.00621358
0.00613573
0.00604702
0.00594767
0.0055734
0.00556434
0.00554619
0.00551896
0.00548261
0.00543713
0.00538246
0.00531852
0.00524506
0.00516158
0.0207961
0.0213445
0.0224688
0.0242216
0.0266739
0.029898
0.0339255
0.0386503
0.0436072
0.0474584
0.0184861
0.0188672
0.0196387
0.020815
0.0224064
0.0244002
0.0267237
0.0291789
0.0313353
0.0323895
0.0165192
0.0167777
0.0172946
0.0180662
0.0190779
0.0202906
0.021619
0.0229014
0.0238634
0.0240975
0.014887
0.0150598
0.0154016
0.0159023
0.0165411
0.017278
0.0180431
0.0187221
0.0191415
0.0190543
0.0135643
0.0136788
0.013903
0.0142259
0.0146274
0.0150741
0.0155129
0.0158644
0.0160152
0.0158083
0.012519
0.0125942
0.0127399
0.0129457
0.013194
0.0134574
0.0136955
0.0138518
0.0138503
0.0135931
0.0117204
0.0117693
0.0118625
0.0119905
0.0121376
0.0122804
0.0123863
0.0124125
0.0123058
0.0120044
0.0111429
0.0111744
0.0112329
0.0113094
0.011389
0.0114501
0.0114638
0.0113936
0.0111973
0.0108327
0.0107676
0.0107884
0.0108255
0.0108697
0.0109063
0.0109139
0.0108637
0.0107188
0.0104359
0.00997105
0.0105829
0.0105984
0.010625
0.0106533
0.0106683
0.0106482
0.0105625
0.0103698
0.0100132
0.00940889
0.0482876
0.0488493
0.0499587
0.0515786
0.0536333
0.0559758
0.0583258
0.0601472
0.0603857
0.0568577
0.0441941
0.0446138
0.0454389
0.0466358
0.0481436
0.0498612
0.0516322
0.0532375
0.054441
0.0552385
0.0406479
0.0409671
0.0415958
0.0425136
0.0436898
0.0450868
0.0466775
0.0484955
0.0507711
0.0542588
0.0376397
0.0378882
0.0383799
0.0391066
0.04006
0.0412404
0.0426762
0.0444643
0.0468394
0.0502701
0.0351381
0.0353339
0.0357228
0.0363023
0.0370723
0.0380413
0.0392369
0.04072
0.0425951
0.0449916
0.033106
0.0332599
0.0335651
0.034019
0.0346194
0.0353665
0.0362655
0.0373261
0.038549
0.0398868
0.0315112
0.0316308
0.031866
0.0322112
0.0326574
0.0331919
0.0337971
0.0344459
0.035089
0.0356286
0.0303305
0.0304229
0.0306021
0.0308583
0.0311749
0.0315273
0.0318803
0.0321851
0.0323739
0.032357
0.0295491
0.0296224
0.0297614
0.0299531
0.0301747
0.0303919
0.0305562
0.0306006
0.0304385
0.0299742
0.0291597
0.0292224
0.0293402
0.0294976
0.0296681
0.029812
0.0298704
0.029758
0.029348
0.0284415
0.0590534
0.0593133
0.0598027
0.0604507
0.0611294
0.0616178
0.0615263
0.0601388
0.0560529
0.0463096
0.0553903
0.0556008
0.0559992
0.0565356
0.0571265
0.0576429
0.0578964
0.057633
0.0565813
0.0547309
0.0522216
0.0524126
0.052784
0.053316
0.0539833
0.0547666
0.0556841
0.0568703
0.0587699
0.0625957
0.0495273
0.0497133
0.0500849
0.0506457
0.0514116
0.052429
0.053812
0.0558121
0.0589401
0.0641494
0.0472701
0.0474525
0.0478219
0.0483928
0.0491962
0.0502939
0.0518016
0.0539231
0.0569878
0.0614681
0.0454144
0.045588
0.04594
0.0464848
0.0472493
0.0482795
0.0496505
0.051474
0.0538927
0.0570422
0.0439367
0.0440961
0.0444171
0.0449081
0.0455826
0.0464609
0.0475714
0.048947
0.0506092
0.0525302
0.0428266
0.0429697
0.0432547
0.043682
0.0442504
0.0449556
0.0457882
0.0467277
0.0477322
0.0487242
0.0420827
0.0422117
0.042465
0.0428366
0.0433133
0.0438723
0.0444765
0.0450673
0.0455578
0.0458385
0.0417089
0.0418287
0.0420633
0.0424023
0.0428259
0.0433007
0.0437721
0.0441514
0.044293
0.0439505
0.0591608
0.0592096
0.0592798
0.0593068
0.0591755
0.058689
0.0575043
0.0549967
0.0499575
0.039877
0.0565858
0.0566352
0.0567138
0.0567762
0.0567461
0.0565055
0.055879
0.0546224
0.052446
0.0492082
0.0543966
0.0544701
0.0546081
0.0547933
0.0550028
0.0552174
0.0554448
0.0557811
0.0565604
0.0587074
0.0525661
0.0526724
0.0528862
0.053213
0.0536705
0.0543037
0.0552164
0.0566302
0.0589884
0.0631123
0.0510527
0.0511882
0.0514655
0.0519026
0.0525345
0.0534267
0.0546968
0.0565473
0.0593049
0.0634528
0.0498186
0.0499729
0.0502889
0.0507861
0.0514987
0.0524829
0.0538273
0.0556642
0.0581708
0.0615516
0.0488391
0.0490015
0.0493321
0.0498459
0.0505667
0.0515295
0.0527835
0.0543914
0.0564184
0.058905
0.0481029
0.0482661
0.0485952
0.0490988
0.049788
0.0506764
0.051779
0.0531077
0.0546619
0.0564129
0.0476084
0.0477689
0.0480896
0.0485734
0.0492212
0.0500304
0.0509911
0.0520808
0.0532562
0.054453
0.0473594
0.0475164
0.04783
0.0482992
0.0489194
0.0496789
0.0505535
0.0514961
0.0524198
0.053166
0.0536958
0.0536602
0.0535712
0.0533855
0.0530277
0.0523709
0.0512001
0.0491354
0.0454664
0.0387648
0.0521014
0.0520801
0.0520238
0.0519003
0.0516566
0.0512105
0.0504408
0.0491784
0.0472155
0.0444036
0.0507846
0.0507944
0.0508073
0.0508085
0.0507776
0.0506916
0.0505368
0.0503401
0.0502465
0.0506979
0.049722
0.0497701
0.049866
0.0500105
0.0502095
0.0504821
0.050877
0.0515047
0.0525931
0.0545691
0.0488781
0.0489627
0.0491356
0.049407
0.0497967
0.0503408
0.0511044
0.0522
0.0538101
0.0562079
0.0482175
0.0483317
0.0485651
0.0489312
0.0494523
0.0501642
0.0511221
0.0524076
0.0541301
0.0564201
0.0477126
0.047848
0.0481237
0.0485525
0.0491537
0.0499549
0.0509942
0.0523194
0.0539818
0.0560188
0.0473448
0.0474941
0.0477965
0.0482629
0.0489079
0.049751
0.050816
0.0521293
0.0537112
0.0555618
0.0471033
0.0472604
0.0475775
0.0480634
0.0487295
0.04959
0.0506619
0.0519625
0.0535058
0.0552956
0.0469833
0.047143
0.047466
0.0479595
0.0486336
0.0495006
0.0505751
0.0518731
0.0534121
0.0552157
0.045504
0.0454567
0.0453541
0.0451749
0.0448841
0.0444257
0.0437111
0.0425956
0.0408297
0.037947
0.0445897
0.0445548
0.0444781
0.0443424
0.04412
0.0437698
0.0432332
0.0424319
0.0412722
0.0396775
0.0438577
0.0438447
0.0438143
0.0437561
0.0436543
0.0434886
0.0432362
0.0428819
0.0424394
0.0419991
0.0432948
0.0433093
0.0433363
0.0433721
0.043412
0.0434518
0.0434925
0.0435493
0.0436666
0.0439375
0.0428784
0.0429216
0.0430081
0.0431389
0.0433167
0.0435464
0.0438387
0.0442143
0.0447093
0.0453784
0.0425823
0.0426525
0.0427942
0.0430117
0.0433115
0.0437026
0.0441974
0.0448132
0.0455684
0.046478
0.0423808
0.0424745
0.0426643
0.0429567
0.0433609
0.0438884
0.0445534
0.0453707
0.046349
0.0474788
0.0422514
0.0423642
0.0425928
0.042946
0.0434357
0.0440776
0.0448917
0.0459
0.0471197
0.0485465
0.0421756
0.0423018
0.0425579
0.0429544
0.0435067
0.0442366
0.0451749
0.0463627
0.0478504
0.0496877
0.0421409
0.0422733
0.0425434
0.0429625
0.0435485
0.0443287
0.0453442
0.0466578
0.0483716
0.0506658
0.0359901
0.0359565
0.0358881
0.0357793
0.0356229
0.0354108
0.035137
0.0348039
0.0344382
0.0341271
0.0354884
0.0354617
0.0354064
0.0353168
0.0351846
0.0349991
0.0347481
0.0344203
0.0340077
0.0335059
0.0350932
0.035077
0.0350422
0.0349829
0.0348901
0.0347501
0.0345441
0.0342456
0.033815
0.0331807
0.0348012
0.0347988
0.0347916
0.0347741
0.0347374
0.034667
0.0345414
0.0343283
0.0339792
0.0334162
0.0346027
0.0346169
0.0346431
0.0346773
0.0347119
0.0347343
0.0347242
0.0346508
0.0344673
0.0341048
0.0344826
0.0345152
0.0345788
0.0346717
0.0347894
0.0349234
0.0350588
0.0351718
0.0352229
0.0351521
0.0344221
0.0344733
0.0345757
0.0347304
0.0349379
0.0351969
0.0355026
0.0358439
0.0361959
0.0365113
0.0344008
0.0344691
0.0346074
0.0348206
0.0351155
0.0355008
0.0359871
0.0365851
0.0372989
0.0381104
0.0343993
0.0344809
0.0346472
0.0349068
0.0352732
0.0357663
0.0364163
0.0372659
0.0383716
0.0397922
0.0344026
0.034491
0.0346726
0.0349582
0.0353654
0.0359232
0.0366775
0.0377033
0.0391288
0.0411875
0.0258548
0.0258352
0.0257977
0.0257447
0.0256821
0.0256236
0.0255983
0.0256678
0.0259626
0.0267651
0.0255851
0.0255678
0.0255338
0.0254836
0.025419
0.025345
0.0252724
0.0252215
0.0252248
0.0253146
0.025369
0.025354
0.0253231
0.0252739
0.0252023
0.0251016
0.0249606
0.0247578
0.024448
0.0239237
0.0252088
0.0251977
0.0251732
0.0251307
0.0250616
0.0249512
0.0247749
0.0244914
0.0240306
0.023273
0.0251034
0.0250988
0.0250867
0.0250616
0.0250135
0.0249253
0.0247689
0.0245005
0.0240523
0.0233247
0.0250468
0.0250515
0.0250581
0.0250624
0.0250557
0.0250234
0.024942
0.0247752
0.0244681
0.0239435
0.0250282
0.0250441
0.0250742
0.0251168
0.0251674
0.0252181
0.0252556
0.025258
0.0251899
0.0249958
0.0250333
0.0250607
0.0251153
0.0251988
0.0253127
0.0254587
0.0256384
0.0258516
0.0260917
0.0263345
0.0250473
0.0250841
0.0251593
0.0252777
0.025447
0.0256796
0.0259944
0.0264206
0.0269976
0.0277671
0.0250577
0.0250996
0.0251866
0.0253252
0.0255274
0.025813
0.0262155
0.0267918
0.0276423
0.0289546
0.0154934
0.0154809
0.0154578
0.0154274
0.0153969
0.0153808
0.0154078
0.015535
0.0158787
0.0166843
0.0153561
0.0153434
0.0153189
0.0152841
0.0152425
0.015201
0.0151721
0.0151769
0.0152467
0.0154107
0.0152408
0.0152268
0.0151982
0.0151538
0.0150914
0.0150074
0.0148948
0.0147387
0.0145042
0.0141055
0.0151511
0.0151362
0.0151045
0.0150524
0.0149731
0.0148552
0.0146794
0.0144129
0.0139991
0.0133418
0.0150892
0.0150749
0.015044
0.0149914
0.0149083
0.01478
0.0145832
0.0142814
0.0138195
0.0131169
0.0150538
0.0150425
0.0150174
0.0149736
0.0149027
0.0147909
0.0146169
0.0143489
0.0139411
0.013331
0.0150404
0.0150339
0.0150188
0.0149917
0.0149464
0.0148731
0.0147567
0.0145746
0.0142944
0.0138699
0.0150414
0.0150404
0.0150373
0.0150306
0.0150178
0.0149948
0.0149555
0.0148908
0.0147855
0.0146129
0.0150483
0.0150522
0.0150599
0.0150719
0.0150893
0.0151144
0.0151513
0.015208
0.0152957
0.015424
0.0150539
0.0150605
0.0150746
0.0150979
0.0151338
0.0151889
0.015276
0.0154187
0.0156624
0.0160971
0.00514376
0.00513778
0.00512639
0.00511038
0.00509166
0.00507428
0.00506664
0.00508607
0.00516895
0.00539423
0.00509997
0.00509348
0.0050807
0.00506169
0.00503687
0.00500731
0.0049753
0.00494489
0.00492151
0.00490639
0.00506178
0.00505422
0.00503877
0.00501434
0.00497913
0.00493016
0.00486232
0.00476632
0.0046238
0.00439546
0.00503073
0.00502214
0.00500414
0.00497461
0.0049299
0.00486395
0.00476677
0.00462206
0.00440302
0.00406575
0.00500802
0.00499896
0.00497966
0.00494744
0.00489767
0.0048228
0.00471094
0.00454393
0.00429475
0.0039243