/*--------------------------------*- C++ -*----------------------------------*\
  =========                 |
  \\      /  F ield         | OpenFOAM: The Open Source CFD Toolbox
   \\    /   O peration     | Website:  https://openfoam.org
    \\  /    A nd           | Version:  dev
     \\/     M anipulation  |
\*---------------------------------------------------------------------------*/
FoamFile
{
    version     2.0;
    format      ascii;
    class       volScalarField;
    location    "0.015";
    object      phi;
}
// * * * * * * * * * * * * * * * * * * * * * * * * * * * * * * * * * * * * * //

dimensions      [1 2 -3 0 0 -1 0];

internalField   nonuniform List<scalar> 
9000
(
49.9949
49.9949
49.9949
49.995
49.9951
49.9952
49.9953
49.9954
49.9954
49.9955
49.9951
49.9951
49.9951
49.9952
49.9954
49.9955
49.9956
49.9957
49.9958
49.9959
49.9955
49.9955
49.9956
49.9957
49.9959
49.9961
49.9963
49.9965
49.9966
49.9968
49.9961
49.9962
49.9963
49.9965
49.9967
49.997
49.9974
49.9977
49.998
49.9982
49.9969
49.997
49.9972
49.9976
49.9979
49.9984
49.999
49.9995
50.0001
50.0005
49.9981
49.9982
49.9985
49.999
49.9996
50.0003
50.0012
50.0022
50.0031
50.004
49.9994
49.9997
50.0001
50.0008
50.0018
50.0029
50.0043
50.0059
50.0076
50.0092
50.0011
50.0014
50.0021
50.0031
50.0045
50.0063
50.0086
50.0112
50.0141
50.0171
50.0031
50.0036
50.0045
50.006
50.008
50.0108
50.0143
50.0186
50.0236
50.029
50.0054
50.006
50.0073
50.0093
50.0123
50.0163
50.0217
50.0285
50.037
50.0471
129.986
129.986
129.986
129.986
129.986
129.986
129.986
129.986
129.986
129.986
129.986
129.986
129.986
129.986
129.987
129.987
129.987
129.987
129.987
129.987
129.987
129.987
129.987
129.987
129.988
129.988
129.988
129.988
129.988
129.988
129.988
129.988
129.988
129.989
129.989
129.989
129.99
129.99
129.99
129.99
129.99
129.99
129.99
129.991
129.991
129.992
129.992
129.993
129.993
129.994
129.992
129.992
129.993
129.993
129.994
129.995
129.996
129.996
129.997
129.998
129.995
129.995
129.996
129.996
129.997
129.998
130
130.001
130.002
130.003
129.998
129.998
129.999
130
130.001
130.003
130.005
130.007
130.009
130.011
130.001
130.002
130.003
130.004
130.006
130.009
130.011
130.014
130.017
130.02
130.005
130.006
130.007
130.009
130.012
130.015
130.019
130.023
130.027
130.031
189.975
189.975
189.975
189.975
189.975
189.975
189.975
189.975
189.975
189.975
189.975
189.975
189.975
189.975
189.976
189.976
189.976
189.976
189.976
189.975
189.976
189.976
189.976
189.976
189.976
189.977
189.977
189.977
189.977
189.977
189.977
189.977
189.977
189.978
189.978
189.978
189.978
189.978
189.978
189.978
189.979
189.979
189.979
189.979
189.98
189.98
189.98
189.98
189.98
189.98
189.981
189.981
189.981
189.982
189.982
189.982
189.983
189.983
189.983
189.983
189.983
189.983
189.984
189.984
189.985
189.985
189.986
189.986
189.987
189.987
189.986
189.986
189.987
189.987
189.988
189.989
189.99
189.99
189.991
189.991
189.989
189.99
189.99
189.991
189.992
189.993
189.994
189.995
189.996
189.997
189.993
189.993
189.994
189.995
189.996
189.997
189.999
190
190.002
190.003
229.963
229.963
229.963
229.963
229.963
229.963
229.963
229.963
229.963
229.963
229.963
229.963
229.963
229.963
229.963
229.963
229.963
229.963
229.963
229.963
229.964
229.964
229.964
229.964
229.964
229.964
229.964
229.964
229.964
229.964
229.965
229.965
229.965
229.965
229.965
229.965
229.965
229.965
229.965
229.965
229.966
229.966
229.966
229.966
229.966
229.966
229.966
229.966
229.966
229.966
229.967
229.967
229.967
229.967
229.967
229.967
229.967
229.968
229.968
229.967
229.968
229.969
229.969
229.969
229.969
229.969
229.969
229.969
229.969
229.969
229.97
229.97
229.97
229.971
229.971
229.971
229.971
229.972
229.972
229.972
229.972
229.972
229.973
229.973
229.973
229.973
229.974
229.974
229.974
229.974
229.974
229.975
229.975
229.975
229.976
229.976
229.976
229.977
229.977
229.977
249.952
249.952
249.952
249.952
249.952
249.952
249.952
249.952
249.952
249.952
249.952
249.952
249.952
249.952
249.952
249.952
249.952
249.952
249.952
249.952
249.952
249.952
249.952
249.952
249.952
249.952
249.952
249.952
249.952
249.952
249.952
249.952
249.952
249.952
249.952
249.952
249.952
249.952
249.952
249.952
249.953
249.953
249.953
249.953
249.953
249.953
249.953
249.953
249.953
249.953
249.953
249.953
249.953
249.953
249.953
249.953
249.953
249.953
249.953
249.953
249.954
249.954
249.954
249.954
249.954
249.954
249.954
249.954
249.954
249.954
249.954
249.954
249.954
249.954
249.954
249.955
249.955
249.955
249.955
249.955
249.955
249.955
249.955
249.955
249.955
249.955
249.955
249.955
249.955
249.955
249.956
249.956
249.956
249.956
249.956
249.956
249.956
249.956
249.956
249.956
249.944
249.944
249.944
249.944
249.944
249.944
249.944
249.944
249.944
249.944
249.944
249.944
249.944
249.944
249.944
249.944
249.944
249.944
249.944
249.944
249.944
249.944
249.944
249.944
249.944
249.944
249.944
249.944
249.944
249.944
249.943
249.943
249.943
249.943
249.943
249.943
249.943
249.943
249.943
249.943
249.943
249.943
249.943
249.943
249.943
249.943
249.943
249.943
249.943
249.943
249.943
249.942
249.942
249.942
249.942
249.942
249.942
249.942
249.942
249.942
249.942
249.942
249.942
249.942
249.942
249.942
249.942
249.942
249.942
249.942
249.941
249.941
249.941
249.941
249.941
249.941
249.941
249.941
249.941
249.941
249.941
249.941
249.941
249.941
249.941
249.94
249.94
249.94
249.94
249.94
249.94
249.94
249.94
249.94
249.94
249.94
249.94
249.939
249.939
249.939
229.941
229.941
229.941
229.941
229.941
229.941
229.941
229.941
229.941
229.941
229.941
229.941
229.941
229.941
229.941
229.941
229.941
229.941
229.941
229.941
229.94
229.94
229.94
229.94
229.94
229.94
229.94
229.94
229.94
229.94
229.939
229.939
229.939
229.939
229.939
229.939
229.939
229.939
229.939
229.94
229.938
229.938
229.938
229.938
229.938
229.938
229.938
229.938
229.938
229.938
229.937
229.937
229.937
229.937
229.937
229.937
229.937
229.937
229.937
229.937
229.936
229.936
229.935
229.935
229.935
229.935
229.935
229.935
229.935
229.935
229.934
229.934
229.934
229.933
229.933
229.933
229.933
229.932
229.932
229.932
229.932
229.932
229.932
229.931
229.931
229.931
229.93
229.93
229.93
229.93
229.93
229.929
229.929
229.929
229.928
229.928
229.928
229.927
229.927
229.927
189.946
189.946
189.946
189.946
189.946
189.946
189.946
189.946
189.946
189.946
189.945
189.945
189.945
189.945
189.945
189.945
189.945
189.945
189.945
189.945
189.945
189.945
189.945
189.944
189.944
189.944
189.944
189.944
189.944
189.944
189.943
189.943
189.943
189.943
189.943
189.943
189.943
189.943
189.943
189.943
189.942
189.942
189.942
189.941
189.941
189.941
189.941
189.94
189.94
189.94
189.94
189.94
189.94
189.939
189.939
189.938
189.938
189.938
189.937
189.937
189.937
189.937
189.937
189.937
189.936
189.936
189.935
189.934
189.934
189.934
189.935
189.934
189.934
189.933
189.933
189.932
189.931
189.93
189.93
189.929
189.931
189.931
189.931
189.93
189.929
189.928
189.927
189.926
189.925
189.924
189.928
189.928
189.927
189.926
189.925
189.923
189.922
189.92
189.919
189.918
129.96
129.96
129.96
129.96
129.96
129.96
129.959
129.959
129.959
129.959
129.96
129.96
129.959
129.959
129.959
129.959
129.959
129.959
129.959
129.959
129.959
129.959
129.959
129.958
129.958
129.958
129.958
129.958
129.957
129.957
129.958
129.957
129.957
129.957
129.957
129.956
129.956
129.956
129.955
129.955
129.956
129.956
129.955
129.955
129.955
129.954
129.954
129.953
129.953
129.952
129.954
129.953
129.953
129.953
129.952
129.951
129.95
129.949
129.949
129.948
129.951
129.951
129.95
129.949
129.949
129.947
129.946
129.945
129.944
129.942
129.948
129.948
129.947
129.946
129.944
129.943
129.941
129.939
129.937
129.935
129.944
129.944
129.943
129.941
129.94
129.937
129.935
129.932
129.929
129.926
129.94
129.94
129.938
129.936
129.934
129.931
129.927
129.923
129.919
129.915
49.9843
49.9843
49.9842
49.9841
49.984
49.9839
49.9838
49.9838
49.9837
49.9837
49.9841
49.9841
49.984
49.9839
49.9838
49.9837
49.9835
49.9834
49.9833
49.9833
49.9837
49.9836
49.9835
49.9834
49.9833
49.9831
49.9829
49.9827
49.9825
49.9824
49.9831
49.983
49.9829
49.9827
49.9824
49.9821
49.9818
49.9815
49.9811
49.9809
49.9822
49.9821
49.9819
49.9816
49.9812
49.9807
49.9802
49.9796
49.9791
49.9786
49.9811
49.9809
49.9806
49.9802
49.9796
49.9788
49.9779
49.977
49.976
49.9751
49.9797
49.9795
49.979
49.9783
49.9774
49.9762
49.9748
49.9732
49.9716
49.9699
49.978
49.9777
49.977
49.976
49.9746
49.9728
49.9706
49.9679
49.965
49.9621
49.976
49.9756
49.9746
49.9732
49.9711
49.9684
49.9649
49.9606
49.9556
49.9501
49.9738
49.9731
49.9719
49.9698
49.9668
49.9628
49.9575
49.9506
49.9421
49.9321
50.0281
50.0306
50.0358
50.0444
50.0573
50.0764
50.1039
50.1438
50.2017
50.2861
50.0325
50.0351
50.0405
50.0494
50.0629
50.0825
50.1109
50.1518
50.2108
50.2964
50.0331
50.0358
50.0413
50.0503
50.0639
50.0836
50.1121
50.1532
50.2124
50.2983
50.0323
50.0347
50.04
50.0488
50.0622
50.0818
50.11
50.1507
50.2095
50.2948
50.0322
50.035
50.0406
50.0496
50.0633
50.0831
50.1117
50.1528
50.2122
50.2983
50.0277
50.0302
50.0355
50.0444
50.0577
50.0773
50.1056
50.1463
50.2052
50.2906
50.0141
50.0168
50.0222
50.0312
50.0446
50.0643
50.0926
50.1335
50.1925
50.2782
49.9654
49.9677
49.9727
49.9811
49.9938
50.0125
50.0398
50.0793
50.1369
50.2209
49.8332
49.8346
49.8374
49.8423
49.8504
49.8634
49.8837
49.9152
49.9637
50.0376
49.6566
49.6498
49.6361
49.6158
49.5893
49.5572
49.5211
49.4832
49.4478
49.4215
130.045
130.047
130.052
130.059
130.069
130.081
130.096
130.114
130.134
130.155
130.055
130.058
130.062
130.07
130.08
130.093
130.109
130.128
130.149
130.171
130.054
130.056
130.061
130.068
130.078
130.091
130.107
130.125
130.145
130.167
130.057
130.06
130.065
130.073
130.084
130.097
130.113
130.132
130.154
130.177
130.05
130.051
130.056
130.063
130.073
130.085
130.101
130.119
130.139
130.16
130.043
130.046
130.051
130.059
130.069
130.082
130.098
130.117
130.139
130.161
130
130.002
130.006
130.013
130.023
130.036
130.051
130.069
130.089
130.11
129.862
129.864
129.868
129.874
129.882
129.893
129.906
129.922
129.939
129.957
129.48
129.479
129.476
129.471
129.466
129.46
129.452
129.444
129.434
129.422
129.099
129.081
129.044
128.988
128.913
128.816
128.697
128.554
128.382
128.174
190.027
190.028
190.031
190.034
190.038
190.043
190.048
190.054
190.06
190.065
190.037
190.038
190.04
190.043
190.047
190.053
190.058
190.064
190.07
190.075
190.041
190.042
190.045
190.049
190.053
190.059
190.065
190.071
190.078
190.083
190.032
190.033
190.035
190.037
190.041
190.046
190.051
190.057
190.062
190.066
190.038
190.04
190.043
190.047
190.052
190.058
190.064
190.071
190.078
190.084
190.012
190.013
190.015
190.018
190.022
190.027
190.032
190.038
190.043
190.047
189.955
189.956
189.958
189.962
189.966
189.971
189.976
189.982
189.988
189.993
189.733
189.733
189.733
189.734
189.735
189.736
189.737
189.737
189.736
189.734
189.164
189.16
189.151
189.138
189.12
189.097
189.069
189.036
188.997
188.952
188.801
188.777
188.729
188.657
188.558
188.431
188.274
188.083
187.852
187.575
229.996
229.996
229.997
229.998
229.999
230.001
230.003
230.004
230.005
230.006
230.004
230.005
230.006
230.007
230.008
230.01
230.012
230.014
230.015
230.017
230
230
230
230.001
230.002
230.003
230.005
230.006
230.007
230.007
230.009
230.011
230.012
230.014
230.016
230.018
230.02
230.023
230.025
230.027
229.989
229.988
229.989
229.989
229.99
229.991
229.992
229.993
229.994
229.993
229.981
229.982
229.983
229.985
229.987
229.989
229.991
229.993
229.995
229.996
229.893
229.893
229.893
229.894
229.894
229.895
229.896
229.896
229.897
229.896
229.627
229.627
229.626
229.624
229.622
229.619
229.615
229.611
229.605
229.598
228.91
228.903
228.889
228.869
228.842
228.808
228.767
228.719
228.664
228.602
228.714
228.689
228.637
228.558
228.449
228.31
228.135
227.921
227.662
227.352
249.963
249.963
249.963
249.964
249.964
249.964
249.965
249.965
249.965
249.965
249.964
249.964
249.964
249.964
249.964
249.965
249.965
249.965
249.965
249.965
249.97
249.971
249.971
249.972
249.972
249.973
249.974
249.974
249.975
249.976
249.955
249.954
249.954
249.954
249.953
249.953
249.953
249.953
249.952
249.951
249.968
249.969
249.969
249.97
249.971
249.972
249.973
249.974
249.975
249.976
249.928
249.927
249.927
249.927
249.927
249.927
249.927
249.926
249.926
249.925
249.85
249.85
249.85
249.85
249.85
249.85
249.85
249.85
249.849
249.849
249.539
249.538
249.536
249.532
249.528
249.522
249.516
249.508
249.5
249.49
248.777
248.77
248.755
248.733
248.703
248.665
248.62
248.567
248.506
248.439
248.69
248.663
248.609
248.526
248.413
248.265
248.081
247.854
247.579
247.251
249.933
249.933
249.932
249.932
249.932
249.931
249.931
249.931
249.931
249.93
249.932
249.932
249.932
249.931
249.931
249.931
249.931
249.931
249.93
249.931
249.924
249.924
249.923
249.923
249.922
249.922
249.921
249.92
249.92
249.919
249.938
249.938
249.939
249.939
249.939
249.939
249.939
249.939
249.94
249.941
249.911
249.91
249.91
249.909
249.908
249.908
249.907
249.906
249.905
249.904
249.906
249.906
249.907
249.907
249.906
249.906
249.906
249.906
249.906
249.907
249.806
249.805
249.805
249.804
249.803
249.802
249.8
249.799
249.797
249.796
249.514
249.513
249.511
249.507
249.503
249.497
249.491
249.483
249.475
249.466
248.728
248.72
248.704
248.68
248.649
248.61
248.563
248.509
248.447
248.377
248.667
248.64
248.586
248.503
248.389
248.242
248.057
247.83
247.555
247.228
229.908
229.908
229.907
229.906
229.905
229.903
229.901
229.9
229.899
229.898
229.899
229.899
229.898
229.897
229.895
229.893
229.892
229.89
229.888
229.887
229.905
229.905
229.904
229.903
229.902
229.9
229.899
229.898
229.896
229.896
229.889
229.888
229.887
229.885
229.884
229.882
229.88
229.877
229.876
229.874
229.903
229.904
229.903
229.902
229.901
229.9
229.898
229.897
229.896
229.896
229.865
229.864
229.863
229.861
229.86
229.858
229.856
229.854
229.852
229.85
229.796
229.796
229.795
229.793
229.792
229.789
229.787
229.785
229.783
229.781
229.514
229.512
229.509
229.505
229.499
229.493
229.485
229.476
229.467
229.457
228.82
228.813
228.799
228.777
228.747
228.711
228.667
228.617
228.559
228.496
228.619
228.592
228.539
228.457
228.345
228.202
228.023
227.805
227.543
227.23
189.893
189.892
189.89
189.887
189.883
189.878
189.872
189.866
189.861
189.856
189.885
189.883
189.881
189.878
189.873
189.868
189.863
189.856
189.851
189.845
189.878
189.876
189.874
189.87
189.866
189.86
189.855
189.848
189.842
189.837
189.889
189.888
189.886
189.883
189.879
189.873
189.868
189.862
189.856
189.852
189.868
189.866
189.863
189.86
189.855
189.85
189.844
189.838
189.832
189.826
189.866
189.865
189.863
189.86
189.855
189.85
189.844
189.838
189.832
189.827
189.793
189.791
189.789
189.785
189.78
189.775
189.768
189.761
189.755
189.748
189.584
189.582
189.578
189.573
189.565
189.556
189.545
189.534
189.522
189.511
189.001
188.994
188.98
188.959
188.932
188.898
188.857
188.811
188.759
188.703
188.672
188.646
188.594
188.515
188.408
188.271
188.103
187.9
187.658
187.37
129.901
129.899
129.894
129.887
129.877
129.865
129.85
129.832
129.812
129.79
129.89
129.888
129.883
129.875
129.865
129.852
129.836
129.818
129.797
129.775
129.893
129.891
129.886
129.878
129.868
129.855
129.839
129.821
129.8
129.778
129.883
129.881
129.876
129.868
129.858
129.845
129.829
129.811
129.79
129.768
129.893
129.891
129.886
129.878
129.868
129.855
129.839
129.821
129.8
129.778
129.871
129.869
129.864
129.856
129.846
129.833
129.817
129.799
129.778
129.756
129.837
129.835
129.83
129.822
129.812
129.799
129.782
129.763
129.742
129.72
129.692
129.689
129.683
129.674
129.662
129.646
129.627
129.605
129.58
129.554
129.323
129.317
129.304
129.285
129.26
129.228
129.189
129.144
129.093
129.037
128.951
128.928
128.882
128.811
128.716
128.594
128.444
128.264
128.051
127.8
49.951
49.9485
49.9433
49.9348
49.9218
49.9028
49.8752
49.8353
49.7775
49.693
49.9469
49.9443
49.9389
49.9299
49.9164
49.8967
49.8683
49.8275
49.7684
49.6827
49.9448
49.9423
49.9369
49.928
49.9145
49.8948
49.8664
49.8255
49.7664
49.6807
49.9483
49.9456
49.9401
49.931
49.9175
49.8978
49.8693
49.8285
49.7694
49.6838
49.9423
49.9398
49.9344
49.9256
49.9121
49.8925
49.8641
49.8232
49.7641
49.6783
49.943
49.9404
49.9348
49.9258
49.9123
49.8925
49.8641
49.8232
49.7641
49.6784
49.9262
49.9236
49.9181
49.9092
49.8956
49.8758
49.8473
49.8062
49.747
49.6611
49.8802
49.8774
49.8716
49.862
49.8478
49.8272
49.7977
49.7556
49.6952
49.608
49.7453
49.7414
49.7333
49.7203
49.7013
49.6747
49.6381
49.5876
49.5177
49.4199
49.5807
49.5689
49.5447
49.5071
49.4544
49.3842
49.2929
49.1752
49.024
48.8288
49.5739
49.522
49.4131
49.2382
48.9834
48.6297
48.1548
47.5393
46.787
45.9808
49.5543
49.4953
49.3711
49.17
48.8722
48.4481
47.8539
47.0246
45.8599
44.1871
49.5255
49.4585
49.3171
49.0859
48.7386
48.2334
47.5044
46.4451
44.8782
42.4911
49.4919
49.4174
49.2598
49.0012
48.6107
48.039
47.2088
45.9986
44.2156
41.5525
49.4578
49.3772
49.207
48.928
48.5075
47.894
47.0091
45.7343
43.8916
41.2164
49.4268
49.3419
49.1634
48.8718
48.4348
47.8026
46.9007
45.6205
43.8048
41.2288
49.401
49.3134
49.1302
48.8324
48.389
47.7529
46.8552
45.5969
43.8375
41.3787
49.3814
49.2924
49.1069
48.8066
48.362
47.7287
46.8421
45.61
43.9022
41.5344
49.3684
49.2788
49.0924
48.7915
48.3477
47.7183
46.8414
45.6289
43.9555
41.6437
49.3621
49.2726
49.086
48.7852
48.3422
47.7153
46.8437
45.6411
43.9853
41.7052
129.808
129.757
129.654
129.501
129.307
129.091
128.905
128.865
129.238
130.646
129.851
129.79
129.666
129.476
129.219
128.895
128.512
128.084
127.631
127.123
129.859
129.785
129.633
129.392
129.049
128.58
127.944
127.068
125.802
123.815
129.843
129.756
129.574
129.284
128.861
128.269
127.443
126.283
124.613
122.137
129.812
129.713
129.507
129.178
128.699
128.027
127.101
125.826
124.07
121.644
129.776
129.668
129.445
129.091
128.579
127.869
126.91
125.629
123.942
121.75
129.74
129.626
129.393
129.024
128.495
127.773
126.813
125.563
123.971
121.994
129.709
129.591
129.351
128.974
128.437
127.709
126.751
125.521
123.977
122.095
129.687
129.567
129.323
128.941
128.397
127.663
126.7
125.463
123.905
121.987
129.676
129.556
129.31
128.925
128.378
127.638
126.667
125.413
123.812
121.787
191.426
191.443
191.478
191.544
191.659
191.861
192.216
192.85
194.018
196.266
191.662
191.676
191.707
191.762
191.856
192.011
192.261
192.654
193.244
194.045
191.84
191.848
191.866
191.896
191.944
192.015
192.109
192.206
192.234
191.99
191.965
191.966
191.967
191.969
191.971
191.969
191.949
191.875
191.665
191.154
192.047
192.04
192.025
192.002
191.968
191.917
191.836
191.704
191.482
191.105
192.094
192.079
192.052
192.009
191.949
191.867
191.761
191.627
191.473
191.322
192.115
192.094
192.055
191.995
191.913
191.806
191.675
191.53
191.401
191.364
192.119
192.093
192.043
191.966
191.86
191.719
191.542
191.332
191.116
190.967
192.117
192.086
192.027
191.935
191.804
191.624
191.383
191.062
190.651
190.158
192.114
192.083
192.019
191.918
191.771
191.562
191.269
190.849
190.233
189.294
233.425
233.507
233.669
233.923
234.283
234.769
235.411
236.248
237.347
238.834
233.888
233.976
234.156
234.436
234.833
235.366
236.06
236.941
238.031
239.316
234.276
234.37
234.562
234.862
235.286
235.853
236.586
237.507
238.623
239.914
234.589
234.686
234.886
235.199
235.641
236.237
237.013
238
239.225
240.7
234.828
234.926
235.127
235.444
235.894
236.502
237.303
238.342
239.678
241.38
234.998
235.093
235.291
235.602
236.044
236.643
237.438
238.482
239.861
241.696
235.108
235.197
235.385
235.68
236.097
236.658
237.396
238.362
239.644
241.39
235.17
235.252
235.426
235.696
236.071
236.564
237.19
237.978
238.982
240.323
235.2
235.277
235.436
235.68
236.009
236.421
236.908
237.455
238.038
238.664
235.213
235.288
235.439
235.666
235.963
236.319
236.702
237.05
237.24
237.03
254.723
254.838
255.065
255.411
255.882
256.479
257.194
257.992
258.784
259.357
255.33
255.459
255.717
256.114
256.66
257.367
258.245
259.294
260.494
261.8
255.859
256.001
256.29
256.737
257.362
258.189
259.252
260.589
262.26
264.367
256.3
256.453
256.767
257.257
257.949
258.88
260.102
261.686
263.729
266.366
256.648
256.808
257.137
257.653
258.385
259.376
260.688
262.408
264.655
267.588
256.905
257.065
257.398
257.92
258.659
259.658
260.979
262.71
264.981
267.974
257.078
257.234
257.559
258.066
258.779
259.732
260.975
262.581
264.667
267.42
257.182
257.331
257.639
258.116
258.776
259.637
260.724
262.072
263.748
265.891
257.238
257.379
257.67
258.113
258.711
259.465
260.362
261.38
262.484
263.661
257.263
257.402
257.681
258.102
258.659
259.337
260.095
260.849
261.433
261.519
254.708
254.822
255.049
255.395
255.865
256.462
257.178
257.978
258.772
259.351
255.317
255.446
255.704
256.1
256.646
257.353
258.231
259.28
260.482
261.789
255.847
255.989
256.277
256.725
257.349
258.176
259.238
260.575
262.246
264.35
256.289
256.442
256.756
257.245
257.937
258.868
260.089
261.672
263.714
266.347
256.638
256.798
257.127
257.642
258.374
259.365
260.677
262.395
264.641
267.571
256.896
257.056
257.389
257.91
258.65
259.649
260.969
262.7
264.97
267.961
257.07
257.226
257.551
258.058
258.771
259.724
260.967
262.573
264.659
267.412
257.175
257.323
257.632
258.109
258.769
259.63
260.717
262.066
263.743
265.887
257.231
257.372
257.663
258.106
258.705
259.459
260.358
261.377
262.482
263.661
257.256
257.395
257.675
258.096
258.654
259.332
260.091
260.847
261.433
261.522
233.384
233.465
233.627
233.88
234.239
234.725
235.366
236.206
237.313
238.814
233.85
233.939
234.117
234.397
234.793
235.325
236.019
236.901
237.992
239.281
234.243
234.337
234.528
234.827
235.249
235.815
236.548
237.467
238.58
239.865
234.559
234.656
234.855
235.167
235.608
236.202
236.977
237.961
239.182
240.648
234.801
234.898
235.099
235.415
235.864
236.472
237.271
238.308
239.639
241.333
234.973
235.068
235.266
235.576
236.018
236.617
237.411
238.455
239.83
241.66
235.085
235.174
235.363
235.658
236.075
236.637
237.375
238.342
239.623
241.367
235.149
235.231
235.405
235.676
236.052
236.546
237.174
237.963
238.969
240.313
235.181
235.257
235.417
235.662
235.992
236.406
236.896
237.446
238.033
238.664
235.194
235.27
235.421
235.649
235.948
236.306
236.692
237.044
237.239
237.038
191.364
191.38
191.414
191.477
191.59
191.79
192.143
192.778
193.952
196.215
191.609
191.622
191.651
191.705
191.796
191.949
192.197
192.589
193.18
193.982
191.793
191.801
191.817
191.845
191.891
191.96
192.052
192.145
192.169
191.915
191.924
191.924
191.924
191.924
191.925
191.921
191.898
191.819
191.603
191.081
192.01
192.002
191.987
191.963
191.928
191.875
191.792
191.657
191.429
191.043
192.061
192.046
192.018
191.975
191.914
191.832
191.725
191.591
191.433
191.276
192.085
192.064
192.025
191.965
191.883
191.777
191.647
191.503
191.374
191.336
192.092
192.065
192.016
191.94
191.834
191.695
191.521
191.314
191.101
190.956
192.091
192.06
192.002
191.912
191.782
191.605
191.367
191.052
190.645
190.161
192.089
192.059
191.996
191.896
191.751
191.546
191.256
190.842
190.233
189.305
129.747
129.695
129.589
129.432
129.233
129.012
128.82
128.775
129.147
130.56
129.798
129.737
129.61
129.417
129.156
128.828
128.44
128.009
127.553
127.042
129.814
129.74
129.585
129.342
128.996
128.523
127.884
127.005
125.733
123.738
129.804
129.716
129.533
129.241
128.816
128.221
127.393
126.229
124.554
122.071
129.778
129.679
129.472
129.142
128.662
127.989
127.06
125.783
124.023
121.591
129.746
129.638
129.415
129.06
128.548
127.838
126.878
125.597
123.908
121.714
129.713
129.599
129.366
128.997
128.469
127.748
126.789
125.541
123.949
121.973
129.685
129.567
129.328
128.951
128.415
127.689
126.734
125.507
123.966
122.088
129.664
129.545
129.302
128.92
128.378
127.647
126.687
125.455
123.902
121.991
129.654
129.535
129.29
128.906
128.361
127.625
126.657
125.407
123.813
121.798
49.5449
49.4917
49.3802
49.2014
48.9412
48.5806
48.0973
47.4721
46.7098
45.8959
49.53
49.4701
49.344
49.1402
48.8388
48.4102
47.811
46.9766
45.8075
44.1327
49.5052
49.4375
49.2948
49.0617
48.712
48.2042
47.4722
46.4104
44.8415
42.4535
49.4747
49.3998
49.2414
48.9815
48.5895
48.0161
47.1843
45.9726
44.1888
41.5254
49.4432
49.3623
49.1916
48.9119
48.4906
47.8764
46.9908
45.7155
43.8724
41.1968
49.4142
49.3291
49.1504
48.8585
48.4214
47.7891
46.8874
45.6075
43.792
41.216
49.3898
49.3023
49.119
48.8211
48.3779
47.7424
46.8455
45.5882
43.8299
41.3723
49.3713
49.2824
49.097
48.7969
48.3529
47.7205
46.8352
45.6047
43.8986
41.5332
49.3591
49.2697
49.0835
48.7831
48.34
47.7118
46.8366
45.626
43.9551
41.6466
49.3532
49.2641
49.0778
48.7776
48.3355
47.7099
46.8401
45.6397
43.9867
41.7107
49.9955
49.9954
49.9954
49.9954
49.9953
49.9953
49.9952
49.9951
49.995
49.9949
49.9959
49.9959
49.9959
49.9958
49.9958
49.9957
49.9956
49.9955
49.9954
49.9953
49.9968
49.9968
49.9968
49.9968
49.9967
49.9967
49.9966
49.9965
49.9963
49.9962
49.9984
49.9984
49.9984
49.9984
49.9984
49.9983
49.9982
49.9981
49.9979
49.9978
50.0008
50.0009
50.001
50.001
50.001
50.001
50.0009
50.0007
50.0005
50.0003
50.0045
50.0048
50.005
50.0051
50.0052
50.0051
50.005
50.0049
50.0046
50.0042
50.0102
50.0107
50.0111
50.0115
50.0117
50.0117
50.0117
50.0114
50.0111
50.0105
50.019
50.02
50.0209
50.0216
50.0221
50.0223
50.0223
50.022
50.0215
50.0207
50.0327
50.0347
50.0365
50.0379
50.039
50.0396
50.0398
50.0395
50.0387
50.0375
50.0545
50.0586
50.0621
50.065
50.0671
50.0684
50.069
50.0687
50.0676
50.0657
129.986
129.986
129.986
129.986
129.986
129.986
129.985
129.985
129.985
129.985
129.987
129.987
129.987
129.987
129.986
129.986
129.986
129.986
129.986
129.985
129.988
129.988
129.988
129.988
129.988
129.988
129.987
129.987
129.987
129.987
129.99
129.99
129.99
129.99
129.99
129.99
129.99
129.989
129.989
129.989
129.994
129.994
129.994
129.994
129.993
129.993
129.993
129.993
129.992
129.992
129.998
129.998
129.998
129.998
129.998
129.998
129.997
129.997
129.997
129.996
130.004
130.004
130.004
130.004
130.004
130.004
130.004
130.003
130.003
130.002
130.011
130.012
130.012
130.012
130.012
130.012
130.012
130.011
130.01
130.01
130.021
130.022
130.023
130.023
130.023
130.023
130.023
130.022
130.021
130.02
130.034
130.035
130.036
130.037
130.037
130.037
130.037
130.036
130.035
130.033
189.975
189.975
189.975
189.974
189.974
189.974
189.974
189.974
189.973
189.973
189.975
189.975
189.975
189.975
189.975
189.975
189.974
189.974
189.974
189.974
189.976
189.976
189.976
189.976
189.976
189.976
189.975
189.975
189.975
189.975
189.978
189.978
189.978
189.978
189.977
189.977
189.977
189.977
189.976
189.976
189.98
189.98
189.98
189.98
189.98
189.98
189.979
189.979
189.979
189.978
189.983
189.983
189.983
189.983
189.983
189.982
189.982
189.982
189.981
189.981
189.987
189.987
189.987
189.987
189.987
189.986
189.986
189.985
189.985
189.984
189.992
189.992
189.992
189.991
189.991
189.991
189.99
189.99
189.989
189.989
189.997
189.997
189.997
189.997
189.997
189.996
189.996
189.995
189.995
189.994
190.003
190.004
190.004
190.004
190.003
190.003
190.002
190.002
190.001
190
229.963
229.962
229.962
229.962
229.962
229.962
229.962
229.962
229.961
229.961
229.963
229.963
229.963
229.963
229.962
229.962
229.962
229.962
229.962
229.962
229.963
229.963
229.963
229.963
229.963
229.963
229.963
229.963
229.962
229.962
229.964
229.964
229.964
229.964
229.964
229.964
229.964
229.963
229.963
229.963
229.966
229.966
229.965
229.965
229.965
229.965
229.965
229.965
229.964
229.964
229.967
229.967
229.967
229.967
229.967
229.967
229.966
229.966
229.966
229.966
229.969
229.969
229.969
229.969
229.969
229.969
229.968
229.968
229.968
229.967
229.972
229.972
229.971
229.971
229.971
229.971
229.971
229.97
229.97
229.969
229.974
229.974
229.974
229.974
229.974
229.973
229.973
229.973
229.972
229.972
229.977
229.977
229.977
229.977
229.977
229.976
229.976
229.976
229.975
229.975
249.952
249.952
249.952
249.952
249.951
249.951
249.951
249.951
249.951
249.951
249.952
249.952
249.952
249.952
249.952
249.952
249.951
249.951
249.951
249.951
249.952
249.952
249.952
249.952
249.952
249.952
249.952
249.952
249.952
249.951
249.952
249.952
249.952
249.952
249.952
249.952
249.952
249.952
249.952
249.952
249.953
249.953
249.953
249.953
249.952
249.952
249.952
249.952
249.952
249.952
249.953
249.953
249.953
249.953
249.953
249.953
249.953
249.953
249.953
249.953
249.954
249.954
249.954
249.954
249.954
249.953
249.953
249.953
249.953
249.953
249.954
249.954
249.954
249.954
249.954
249.954
249.954
249.954
249.954
249.954
249.955
249.955
249.955
249.955
249.955
249.955
249.955
249.955
249.955
249.954
249.956
249.956
249.956
249.956
249.956
249.956
249.956
249.956
249.955
249.955
249.944
249.944
249.944
249.944
249.944
249.944
249.944
249.944
249.944
249.945
249.944
249.944
249.944
249.944
249.944
249.944
249.944
249.944
249.944
249.944
249.944
249.944
249.944
249.944
249.944
249.944
249.944
249.944
249.944
249.944
249.943
249.943
249.944
249.944
249.944
249.944
249.944
249.944
249.944
249.944
249.943
249.943
249.943
249.943
249.943
249.943
249.943
249.943
249.944
249.944
249.943
249.943
249.943
249.943
249.943
249.943
249.943
249.943
249.943
249.943
249.942
249.942
249.942
249.942
249.942
249.942
249.942
249.942
249.943
249.943
249.941
249.941
249.941
249.941
249.941
249.942
249.942
249.942
249.942
249.942
249.94
249.94
249.941
249.941
249.941
249.941
249.941
249.941
249.941
249.941
249.94
249.94
249.94
249.94
249.94
249.94
249.94
249.94
249.94
249.94
229.942
229.942
229.942
229.942
229.942
229.942
229.942
229.942
229.943
229.943
229.941
229.941
229.941
229.942
229.942
229.942
229.942
229.942
229.942
229.943
229.941
229.941
229.941
229.941
229.941
229.941
229.941
229.942
229.942
229.942
229.94
229.94
229.94
229.94
229.94
229.94
229.94
229.941
229.941
229.941
229.938
229.938
229.939
229.939
229.939
229.939
229.939
229.939
229.94
229.94
229.937
229.937
229.937
229.937
229.937
229.937
229.938
229.938
229.938
229.938
229.935
229.935
229.935
229.935
229.935
229.936
229.936
229.936
229.936
229.937
229.932
229.933
229.933
229.933
229.933
229.933
229.934
229.934
229.934
229.935
229.93
229.93
229.93
229.93
229.93
229.931
229.931
229.931
229.932
229.932
229.927
229.927
229.927
229.927
229.927
229.928
229.928
229.928
229.929
229.929
189.946
189.946
189.946
189.946
189.947
189.947
189.947
189.947
189.947
189.948
189.945
189.946