/*--------------------------------*- C++ -*----------------------------------*\
| =========                 |                                                 |
| \\      /  F ield         | OpenFOAM: The Open Source CFD Toolbox           |
|  \\    /   O peration     | Version:  2.4.0                                 |
|   \\  /    A nd           | Web:      www.OpenFOAM.org                      |
|    \\/     M anipulation  |                                                 |
\*---------------------------------------------------------------------------*/
FoamFile
{
    version     2.0;
    format      ascii;
    class       volScalarField;
    location    "0.015";
    object      rho;
}
// * * * * * * * * * * * * * * * * * * * * * * * * * * * * * * * * * * * * * //

dimensions      [0 -3 1 0 0 1 0];

internalField   nonuniform List<scalar> 
9000
(
5.71283e-49
4.28434e-46
2.08053e-43
7.68509e-41
2.16472e-38
4.48628e-36
6.51818e-34
6.27943e-32
3.75858e-30
1.268e-28
3.81835e-45
2.64293e-42
1.1548e-39
3.76208e-37
9.20927e-35
1.64219e-32
2.04179e-30
1.68173e-28
8.6294e-27
2.51955e-25
1.19571e-41
7.59812e-39
2.9667e-36
8.45453e-34
1.78191e-31
2.70606e-29
2.84747e-27
1.98176e-25
8.6212e-24
2.14994e-22
2.30232e-38
1.33245e-35
4.60188e-33
1.13367e-30
2.03025e-28
2.58836e-26
2.26978e-24
1.31311e-22
4.76064e-21
9.97609e-20
3.01983e-35
1.57509e-32
4.74767e-30
9.95472e-28
1.489e-25
1.56415e-23
1.12036e-21
5.27357e-20
1.55799e-18
2.68238e-17
2.83599e-32
1.31607e-29
3.40562e-27
5.96265e-25
7.29247e-23
6.16733e-21
3.51877e-19
1.31183e-17
3.06985e-16
4.22058e-15
1.95904e-29
7.96974e-27
1.73702e-24
2.48299e-22
2.42093e-20
1.60286e-18
7.06493e-17
2.0179e-15
3.61027e-14
3.82488e-13
1.01115e-26
3.54963e-24
6.38093e-22
7.26053e-20
5.48072e-18
2.74851e-16
9.01992e-15
1.89461e-13
2.47861e-12
1.93365e-11
3.93963e-24
1.1755e-21
1.70613e-19
1.50392e-17
8.50654e-16
3.10976e-14
7.26913e-13
1.0671e-11
9.63679e-11
5.21037e-10
1.16816e-21
2.92785e-19
3.36589e-17
2.2374e-15
9.15796e-14
2.33735e-12
3.69196e-11
3.55297e-10
2.05052e-09
7.04617e-09
6.07774e-50
3.87367e-47
1.41677e-44
3.75454e-42
7.66644e-40
1.21725e-37
1.488e-35
1.33822e-33
7.91015e-32
2.2621e-30
2.00865e-46
1.20176e-43
4.05927e-41
9.8025e-39
1.80535e-36
2.56704e-34
2.7831e-32
2.21756e-30
1.16536e-28
2.98847e-27
3.14029e-43
1.75703e-40
5.45594e-38
1.19423e-35
1.97216e-33
2.49534e-31
2.39331e-29
1.67559e-27
7.7601e-26
1.76856e-24
3.06228e-40
1.59405e-37
4.52208e-35
8.90863e-33
1.30898e-30
1.46176e-28
1.23108e-26
7.54085e-25
3.04075e-23
6.08465e-22
2.07247e-37
9.97196e-35
2.56432e-32
4.50673e-30
5.83566e-28
5.69356e-26
4.16675e-24
2.21129e-22
7.70528e-21
1.33251e-19
1.02693e-34
4.53271e-32
1.04685e-29
1.62414e-27
1.83222e-25
1.54298e-23
9.69107e-22
4.4009e-20
1.30916e-18
1.9292e-17
3.83842e-32
1.5409e-29
3.1628e-27
4.27963e-25
4.15045e-23
2.97438e-21
1.58004e-19
6.05268e-18
1.5153e-16
1.86893e-15
1.10103e-29
3.9836e-27
7.18424e-25
8.36496e-23
6.86884e-21
4.12035e-19
1.81999e-17
5.7858e-16
1.19987e-14
1.21112e-13
2.44751e-27
7.91022e-25
1.23881e-22
1.22334e-20
8.36176e-19
4.11886e-17
1.48252e-15
3.83815e-14
6.48141e-13
5.20895e-12
4.23786e-25
1.21428e-22
1.63323e-20
1.34775e-18
7.52612e-17
2.97674e-15
8.51538e-14
1.75497e-12
2.37055e-11
1.46553e-10
2.27113e-54
2.60796e-51
1.53525e-48
5.82416e-46
1.45396e-43
2.42904e-41
2.92826e-39
2.67093e-37
1.69068e-35
5.11806e-34
7.6046e-51
8.28736e-48
4.57799e-45
1.61369e-42
3.71374e-40
5.6882e-38
6.26792e-36
5.2231e-34
3.02699e-32
8.44217e-31
1.21889e-47
1.2574e-44
6.49768e-42
2.12029e-39
4.47942e-37
6.2604e-35
6.27242e-33
4.74768e-31
2.5034e-29
6.39091e-28
1.23421e-44
1.20392e-41
5.81951e-39
1.75305e-36
3.38146e-34
4.28587e-32
3.87791e-30
2.64634e-28
1.25942e-26
2.91876e-25
8.78384e-42
8.07246e-39
3.63717e-36
1.01125e-33
1.78223e-31
2.03896e-29
1.65207e-27
1.00709e-25
4.28283e-24
8.91874e-23
4.64601e-39
4.00671e-36
1.67663e-33
4.28992e-31
6.88124e-29
7.08924e-27
5.13254e-25
2.76362e-23
1.03759e-21
1.91738e-20
1.88452e-36
1.51863e-33
5.88093e-31
1.38158e-28
2.00984e-26
1.85222e-24
1.1889e-22
5.6452e-21
1.84404e-19
2.97858e-18
5.96692e-34
4.47309e-31
1.59756e-28
3.44215e-26
4.52923e-24
3.70787e-22
2.08959e-20
8.65785e-19
2.44639e-17
3.39021e-16
1.48796e-31
1.03269e-28
3.39002e-26
6.70579e-24
7.97424e-22
5.75819e-20
2.81791e-18
1.00674e-16
2.43239e-15
2.84384e-14
2.92929e-29
1.87203e-26
5.62471e-24
1.02595e-21
1.10532e-19
6.99238e-18
2.93438e-16
8.91508e-15
1.74553e-13
1.57414e-12
1.01352e-58
1.25636e-55
8.42633e-53
3.78301e-50
1.10442e-47
2.1422e-45
2.8661e-43
2.86848e-41
1.90799e-39
5.80294e-38
4.30659e-55
5.1021e-52
3.24941e-49
1.37729e-46
3.77874e-44
6.8656e-42
8.58863e-40
8.03472e-38
5.00239e-36
1.43052e-34
8.80467e-52
9.94782e-49
6.00114e-46
2.39465e-43
6.15461e-41
1.04372e-38
1.21598e-36
1.05868e-34
6.14022e-33
1.6428e-31
1.1541e-48
1.24051e-45
7.06799e-43
2.6462e-40
6.34664e-38
1.00022e-35
1.08004e-33
8.70483e-32
4.67595e-30
1.16339e-28
1.09076e-45
1.11231e-42
5.9657e-40
2.08737e-37
4.6506e-35
6.77651e-33
6.74314e-31
4.99914e-29
2.46986e-27
5.67327e-26
7.92857e-43
7.64694e-40
3.84601e-37
1.25198e-34
2.57761e-32
3.45202e-30
3.14436e-28
2.12823e-26
9.59135e-25
2.01645e-23
4.61909e-40
4.19896e-37
1.97191e-34
5.94171e-32
1.12368e-29
1.37371e-27
1.13656e-25
6.73205e-24
2.63824e-22
4.86066e-21
2.18819e-37
1.87107e-34
8.2072e-32
2.29288e-29
3.93213e-27
4.13067e-25
2.94945e-23
1.51087e-21
5.12e-20
8.16273e-19
8.56931e-35
6.85565e-32
2.72199e-29
6.7195e-27
1.01208e-24
9.2445e-23
5.68702e-21
2.49873e-19
7.21976e-18
9.77585e-17
2.59068e-32
1.89871e-29
6.78526e-27
1.49551e-24
1.99007e-22
1.58548e-20
8.39883e-19
3.11394e-17
7.49129e-16
8.37549e-15
3.44043e-62
4.42072e-59
3.06565e-56
1.42314e-53
4.29329e-51
8.55677e-49
1.18044e-46
1.21278e-44
8.28506e-43
2.58435e-41
1.69622e-58
2.08764e-55
1.37795e-52
6.05685e-50
1.72258e-47
3.22196e-45
4.16818e-43
4.01016e-41
2.57033e-39
7.56154e-38
4.06961e-55
4.78911e-52
3.00294e-49
1.24725e-46
3.33646e-44
5.83979e-42
7.06297e-40
6.33893e-38
3.7958e-36
1.04845e-34
6.26892e-52
7.03879e-49
4.18207e-46
1.63657e-43
4.10415e-41
6.69313e-39
7.5335e-37
6.2713e-35
3.48647e-33
8.98353e-32
6.91651e-49
7.39113e-46
4.14777e-43
1.52363e-40
3.56636e-38
5.38722e-36
5.60809e-34
4.29576e-32
2.1979e-30
5.23584e-29
5.78707e-46
5.86874e-43
3.09858e-40
1.06354e-37
2.31074e-35
3.20768e-33
3.06284e-31
2.13469e-29
9.92664e-28
2.15806e-26
3.79501e-43
3.64001e-40
1.79948e-37
5.73817e-35
1.14909e-32
1.44982e-30
1.25518e-28
7.82525e-27
3.24224e-25
6.29723e-24
1.98439e-40
1.79304e-37
8.24836e-35
2.42531e-32
4.43356e-30
4.99857e-28
3.85287e-26
2.12717e-24
7.77846e-23
1.33281e-21
8.33778e-38
7.0567e-35
2.98762e-32
7.98248e-30
1.31656e-27
1.32808e-25
9.09196e-24
4.41097e-22
1.40739e-20
2.09942e-19
2.79479e-35
2.19828e-32
8.53659e-30
2.07477e-27
3.08665e-25
2.78522e-23
1.69362e-21
7.17249e-20
1.97694e-18
2.54217e-17
1.48085e-65
1.9628e-62
1.39736e-59
6.63949e-57
2.04496e-54
4.14453e-52
5.82081e-50
6.07882e-48
4.22765e-46
1.34372e-44
7.85328e-62
9.98833e-59
6.78124e-56
3.05775e-53
8.90056e-51
1.69633e-48
2.23979e-46
2.19503e-44
1.43564e-42
4.31435e-41
2.03656e-58
2.48156e-55
1.60386e-52
6.85079e-50
1.88091e-47
3.36204e-45
4.16181e-43
3.81357e-41
2.33601e-39
6.60871e-38
3.4059e-55
3.96826e-52
2.43581e-49
9.83006e-47
2.53804e-44
4.2375e-42
4.89685e-40
4.17253e-38
2.37922e-36
6.2962e-35
4.09294e-52
4.54933e-49
2.64417e-46
1.00473e-43
2.42987e-41
3.76864e-39
4.04193e-37
3.17874e-35
1.67317e-33
4.10538e-32
3.73584e-49
3.95071e-46
2.16632e-43
7.71738e-41
1.73949e-38
2.48874e-36
2.45869e-34
1.76752e-32
8.49378e-31
1.9094e-29
2.67254e-46
2.68052e-43
1.3805e-40
4.58651e-38
9.57675e-36
1.25351e-33
1.13013e-31
7.34401e-30
3.17978e-28
6.4513e-27
1.52544e-43
1.44573e-40
6.95613e-38
2.14169e-35
4.11414e-33
4.88741e-31
3.98282e-29
2.32277e-27
8.98982e-26
1.62979e-24
7.02148e-41
6.26075e-38
2.79798e-35
7.92897e-33
1.39332e-30
1.50408e-28
1.10759e-26
5.77208e-25
1.98301e-23
3.18737e-22
2.62884e-38
2.1969e-35
9.11263e-33
2.38096e-30
3.83288e-28
3.76763e-26
2.51444e-24
1.17094e-22
3.56522e-21
5.07727e-20
5.87267e-69
8.02783e-66
5.87457e-63
2.86258e-60
9.02465e-58
1.86731e-55
2.67845e-53
2.85438e-51
2.02776e-49
6.58623e-48
3.29247e-65
4.32548e-62
3.02341e-59
1.40065e-56
4.18138e-54
8.15044e-52
1.1014e-49
1.10363e-47
7.38895e-46
2.27436e-44
9.06895e-62
1.14334e-58
7.62089e-56
3.35083e-53
9.45512e-51
1.73176e-48
2.19883e-46
2.06433e-44
1.29731e-42
3.76797e-41
1.6183e-58
1.95433e-55
1.23944e-52
5.15962e-50
1.37231e-47
2.35264e-45
2.79538e-43
2.44601e-41
1.43439e-39
3.90666e-38
2.08364e-55
2.4052e-52
1.4473e-49
5.68588e-47
1.42024e-44
2.26753e-42
2.50761e-40
2.03094e-38
1.10261e-36
2.79232e-35
2.04504e-52
2.25079e-49
1.28068e-46
4.72947e-44
1.10447e-41
1.63229e-39
1.66879e-37
1.24058e-35
6.17488e-34
1.43834e-32
1.5787e-49
1.6519e-46
8.85234e-44
3.05873e-41
6.64381e-39
9.03126e-37
8.47246e-35
5.73199e-33
2.58894e-31
5.48022e-30
9.77192e-47
9.68946e-44
4.86947e-41
1.56645e-38
3.14852e-36
3.91921e-34
3.35415e-32
2.05449e-30
8.36831e-29
1.59729e-27
4.92406e-44
4.61144e-41
2.16583e-38
6.46334e-36
1.19877e-33
1.36935e-31
1.07074e-29
5.92837e-28
2.16972e-26
3.71942e-25
2.06351e-41
1.82149e-38
8.00152e-36
2.22153e-33
3.81392e-31
4.01419e-29
2.88229e-27
1.44827e-25
4.77844e-24
7.38878e-23
2.10265e-72
2.96351e-69
2.23105e-66
1.11671e-63
3.61153e-61
7.65317e-59
1.12438e-56
1.22671e-54
8.92718e-53
2.9703e-51
1.23515e-68
1.6754e-65
1.20653e-62
5.75066e-60
1.76416e-57
3.52774e-55
4.89205e-53
5.02809e-51
3.45568e-49
1.09201e-47
3.58052e-65
4.66766e-62
3.21041e-59
1.45475e-56
4.22601e-54
7.9546e-52
1.03855e-49
1.00212e-47
6.47886e-46
1.93629e-44
6.75365e-62
8.4472e-59
5.53725e-56
2.3799e-53
6.52961e-51
1.15268e-48
1.41139e-46
1.27214e-44
7.69288e-43
2.16123e-41
9.23013e-59
1.10543e-55
6.88779e-53
2.79941e-50
7.22935e-48
1.19126e-45
1.36101e-43
1.13847e-41
6.39161e-40
1.67434e-38
9.65483e-56
1.1046e-52
6.52141e-50
2.49721e-47
6.04511e-45
9.24809e-43
9.7986e-41
7.54989e-39
3.90038e-37
9.43195e-36
7.97733e-53
8.69566e-50
4.84693e-47
1.74139e-44
3.93371e-42
5.55839e-40
5.42762e-38
3.82486e-36
1.80255e-34
3.98221e-33
5.31558e-50
5.5046e-47
2.8865e-44
9.6911e-42
2.03472e-39
2.64844e-37
2.37428e-35
1.52447e-33
6.52186e-32
1.30815e-30
2.91342e-47
2.85866e-44
1.40713e-41
4.40633e-39
8.58812e-37
1.03278e-34
8.52369e-33
4.98767e-31
1.93426e-29
3.51711e-28
1.36021e-44
1.2632e-41
5.84694e-39
1.71403e-36
3.11437e-34
3.47873e-32
2.66002e-30
1.4275e-28
5.04915e-27
8.38288e-26
6.80353e-76
9.88211e-73
7.65671e-70
3.94032e-67
1.30908e-64
2.84692e-62
4.29217e-60
4.80435e-58
3.58811e-56
1.22475e-54
4.16329e-72
5.82734e-69
4.32489e-66
2.12254e-63
6.69972e-61
1.37715e-58
1.96331e-56
2.07416e-54
1.46594e-52
4.7625e-51
1.26269e-68
1.70094e-65
1.20744e-62
5.64264e-60
1.68944e-57
3.27453e-55
4.40357e-53
4.37631e-51
2.91589e-49
8.97952e-48
2.50265e-65
3.2394e-62
2.19502e-59
9.74605e-57
2.76107e-54
5.02852e-52
6.35528e-50
5.91272e-48
3.69364e-46
1.07188e-44
3.60917e-62
4.48049e-59
2.89071e-56
1.21597e-53
3.24908e-51
5.53541e-49
6.54302e-47
5.66375e-45
3.29368e-43
8.93707e-42
4.00006e-59
4.75215e-56
2.91057e-53
1.15592e-50
2.90196e-48
4.60203e-46
5.0588e-44
4.04604e-42
2.17231e-40
5.45948e-39
3.51691e-56
3.98857e-53
2.31143e-50
8.63375e-48
2.02825e-45
2.98072e-43
3.03044e-41
2.22553e-39
1.09465e-37
2.52428e-36
2.50685e-53
2.70697e-50
1.4797e-47
5.18059e-45
1.13507e-42
1.5432e-40
1.44713e-38
9.7301e-37
4.36697e-35
9.19268e-34
1.48301e-50
1.52139e-47
7.83267e-45
2.56776e-42
5.24544e-40
6.62102e-38
5.74724e-36
3.54287e-34
1.45086e-32
2.78796e-31
7.65173e-48
7.45335e-45
3.6224e-42
1.11667e-39
2.13734e-37
2.5201e-35
2.03957e-33
1.16155e-31
4.37407e-30
7.74064e-29
1.99141e-79
2.97922e-76
2.37576e-73
1.25762e-70
4.29556e-68
9.59904e-66
1.48681e-63
1.70953e-61
1.31156e-59
4.59547e-58
1.26402e-75
1.82448e-72
1.39545e-69
7.05443e-67
2.2927e-64
4.85026e-62
7.11623e-60
7.73698e-58
5.62846e-56
1.88095e-54
3.99498e-72
5.55681e-69
4.07076e-66
1.9625e-63
6.05981e-61
1.21089e-58
1.67899e-56
1.72063e-54
1.1826e-52
3.75465e-51
8.28918e-69
1.10944e-65
7.76968e-63
3.56464e-60
1.04331e-57
1.96257e-55
2.56266e-53
2.46396e-51
1.59154e-49
4.77346e-48
1.25705e-65
1.61607e-62
1.07936e-59
4.69974e-57
1.29985e-54
2.29208e-52
2.80547e-50
2.51584e-48
1.5168e-46
4.26543e-45
1.47138e-62
1.81323e-59
1.15171e-56
4.74373e-54
1.23536e-51
2.0324e-49
2.31931e-47
1.92711e-45
1.07592e-43
2.81125e-42
1.37208e-59
1.61705e-56
9.7374e-54
3.78037e-51
9.23434e-49
1.4117e-46
1.49437e-44
1.14384e-42
5.87136e-41
1.41287e-39
1.04191e-56
1.1715e-53
6.66905e-51
2.43288e-48
5.55801e-46
7.88566e-44
7.72633e-42
5.43512e-40
2.55622e-38
5.63962e-37
6.60446e-54
7.07072e-51
3.80089e-48
1.30212e-45
2.78248e-43
3.67836e-41
3.34948e-39
2.16985e-37
9.35748e-36
1.89439e-34
3.71067e-51
3.78164e-48
1.92459e-45
6.22013e-43
1.24992e-40
1.54978e-38
1.32176e-36
7.95157e-35
3.17155e-33
5.94943e-32
2.65624e-19
5.56588e-17
4.99956e-15
2.44761e-13
7.00502e-12
1.19195e-10
1.19786e-09
6.98464e-09
2.32171e-08
4.45034e-08
3.51454e-19
7.03021e-17
6.03945e-15
2.83586e-13
7.81379e-12
1.28579e-10
1.25601e-09
7.15918e-09
2.33859e-08
4.42615e-08
3.52205e-19
7.04111e-17
6.04559e-15
2.83744e-13
7.8153e-12
1.2857e-10
1.25573e-09
7.15724e-09
2.3381e-08
4.42419e-08
3.52048e-19
7.03841e-17
6.04361e-15
2.83666e-13
7.81354e-12
1.28547e-10
1.25556e-09
7.15659e-09
2.33799e-08
4.42389e-08
3.52022e-19
7.03793e-17
6.04325e-15
2.83652e-13
7.81322e-12
1.28543e-10
1.25553e-09
7.15647e-09
2.33797e-08
4.42383e-08
3.52017e-19
7.03786e-17
6.04321e-15
2.83651e-13
7.81319e-12
1.28543e-10
1.25553e-09
7.15646e-09
2.33797e-08
4.42383e-08
3.52044e-19
7.03832e-17
6.04354e-15
2.83663e-13
7.81346e-12
1.28546e-10
1.25555e-09
7.15654e-09
2.33798e-08
4.42386e-08
3.52179e-19
7.04066e-17
6.04525e-15
2.8373e-13
7.81494e-12
1.28565e-10
1.25568e-09
7.15701e-09
2.33805e-08
4.42407e-08
3.51535e-19
7.03133e-17
6.04e-15
2.83593e-13
7.81354e-12
1.28569e-10
1.25586e-09
7.15819e-09
2.33833e-08
4.42545e-08
2.67132e-19
5.59199e-17
5.0182e-15
2.45449e-13
7.01883e-12
1.1934e-10
1.19856e-09
6.98572e-09
2.32057e-08
4.44595e-08
5.72525e-23
1.44805e-20
1.65811e-18
1.12758e-16
5.04343e-15
1.56007e-13
3.43153e-12
5.46124e-11
5.79857e-10
2.63135e-09
6.67075e-23
1.59828e-20
1.73647e-18
1.12321e-16
4.7935e-15
1.42046e-13
3.00791e-12
4.63543e-11
5.27068e-10
2.4956e-09
6.51177e-23
1.55987e-20
1.69452e-18
1.09605e-16
4.67811e-15
1.38652e-13
2.93715e-12
4.52918e-11
5.15469e-10
2.46888e-09
6.47396e-23
1.55112e-20
1.68537e-18
1.09036e-16
4.65484e-15
1.3799e-13
2.92374e-12
4.50953e-11
5.13363e-10
2.46408e-09
6.46635e-23
1.54938e-20
1.68356e-18
1.08924e-16
4.65027e-15
1.37861e-13
2.92113e-12
4.50571e-11
5.12952e-10
2.46315e-09
6.46596e-23
1.54927e-20
1.68343e-18
1.08916e-16
4.64994e-15
1.37851e-13
2.92093e-12
4.5054e-11
5.12918e-10
2.46306e-09
6.47025e-23
1.55028e-20
1.6845e-18
1.08984e-16
4.6528e-15
1.37936e-13
2.92272e-12
4.50811e-11
5.13209e-10
2.46372e-09
6.49541e-23
1.55609e-20
1.69062e-18
1.09368e-16
4.66882e-15
1.38402e-13
2.9324e-12
4.52253e-11
5.14738e-10
2.46716e-09
6.60106e-23
1.58201e-20
1.71951e-18
1.11287e-16
4.75274e-15
1.40947e-13
2.98694e-12
4.60565e-11
5.23674e-10
2.4874e-09
5.18119e-23
1.31608e-20
1.51651e-18
1.03938e-16
4.68642e-15
1.45871e-13
3.21229e-12
5.0718e-11
5.64253e-10
2.58942e-09
4.53872e-27
2.65355e-24
7.23861e-22
1.22985e-19
1.21094e-17
6.67101e-16
2.36519e-14
5.6234e-13
8.43587e-12
5.8028e-11
3.70618e-27
2.04765e-24
5.28603e-22
8.5183e-20
9.67046e-18
5.61166e-16
2.00841e-14
4.81094e-13
7.65732e-12
5.50054e-11
3.30005e-27
1.82635e-24
4.72337e-22
7.62717e-20
8.67939e-18
5.23647e-16
1.9059e-14
4.60947e-13
7.3914e-12
5.38421e-11
3.21129e-27
1.77847e-24
4.6027e-22
7.43747e-20
8.4696e-18
5.15822e-16
1.88494e-14
4.56909e-13
7.33886e-12
5.36066e-11
3.19315e-27
1.76854e-24
4.57749e-22
7.39774e-20
8.42551e-18
5.14193e-16
1.88061e-14
4.5608e-13
7.32807e-12
5.35571e-11
3.19221e-27
1.76815e-24
4.57654e-22
7.39601e-20
8.42328e-18
5.14107e-16
1.88037e-14
4.56032e-13
7.32743e-12
5.35547e-11
3.20453e-27
1.77477e-24
4.59317e-22
7.42202e-20
8.45154e-18
5.15152e-16
1.88318e-14
4.56581e-13
7.33467e-12
5.35866e-11
3.27129e-27
1.81101e-24
4.68402e-22
7.56208e-20
8.60115e-18
5.20733e-16
1.89822e-14
4.59504e-13
7.37286e-12
5.37557e-11
3.58478e-27
1.98201e-24
5.11475e-22
8.22904e-20
9.31555e-18
5.48005e-16
1.97377e-14
4.74568e-13
7.57205e-12
5.46022e-11
3.56201e-27
2.06284e-24
5.51262e-22
9.06815e-20
1.01441e-17
5.87265e-16
2.14119e-14
5.19027e-13
8.07403e-12
5.62398e-11
6.16885e-30
4.1421e-27
1.33362e-24
2.62479e-22
3.07798e-20
2.12773e-18
9.65798e-17
2.96793e-15
5.82245e-14
5.34663e-13
5.17988e-30
3.30726e-27
1.02359e-24
1.99529e-22
2.60556e-20
1.87734e-18
8.58193e-17
2.65803e-15
5.52634e-14
5.32125e-13
4.45413e-30
2.85631e-27
8.89285e-25
1.74678e-22
2.30862e-20
1.72573e-18
8.03318e-17
2.5165e-15
5.28258e-14
5.17146e-13
4.28916e-30
2.75466e-27
8.59271e-25
1.69164e-22
2.24295e-20
1.69187e-18
7.91087e-17
2.48515e-15
5.22849e-14
5.13573e-13
4.25486e-30
2.73342e-27
8.52973e-25
1.68004e-22
2.22911e-20
1.68477e-18
7.88534e-17
2.47863e-15
5.21724e-14
5.12818e-13
4.25264e-30
2.73217e-27
8.52631e-25
1.67942e-22
2.2283e-20
1.6843e-18
7.8835e-17
2.47813e-15
5.2163e-14
5.12746e-13
4.27578e-30
2.74648e-27
8.56859e-25
1.68717e-22
2.2375e-20
1.68904e-18
7.90067e-17
2.48258e-15
5.22412e-14
5.13274e-13
4.39451e-30
2.82056e-27
8.78888e-25
1.72755e-22
2.28489e-20
1.71321e-18
7.98765e-17
2.50488e-15
5.26256e-14
5.1575e-13
4.91581e-30
3.14844e-27
9.77203e-25
1.90881e-22
2.4977e-20
1.82115e-18
8.37922e-17
2.6065e-15
5.43702e-14
5.25904e-13
4.50587e-30
3.05232e-27
9.87332e-25
1.96328e-22
2.51817e-20
1.82003e-18
8.52106e-17
2.68901e-15
5.48264e-14
5.10221e-13
7.61933e-33
5.56794e-30
1.98365e-27
4.37864e-25
5.8646e-23
4.73134e-21
2.56008e-19
9.47181e-18
2.25599e-16
2.51313e-15
7.1326e-33
4.9496e-30
1.69279e-27
3.70029e-25
5.50523e-23
4.65866e-21
2.53019e-19
9.40476e-18
2.36866e-16
2.76085e-15
6.11169e-33
4.25886e-30
1.46504e-27
3.22738e-25
4.883e-23
4.28719e-21
2.37105e-19
8.91365e-18
2.26648e-16
2.68599e-15
5.86695e-33
4.09455e-30
1.41128e-27
3.11639e-25
4.73537e-23
4.19585e-21
2.33121e-19
8.7894e-18
2.24009e-16
2.66388e-15
5.81551e-33
4.05961e-30
1.39976e-27
3.09245e-25
4.70311e-23
4.17573e-21
2.32238e-19
8.7617e-18
2.23413e-16
2.65866e-15
5.8117e-33
4.0575e-30
1.39916e-27
3.09133e-25
4.70164e-23
4.17469e-21
2.32189e-19
8.76009e-18
2.23378e-16
2.65837e-15
5.84678e-33
4.08105e-30
1.40688e-27
3.10727e-25
4.72288e-23
4.18788e-21
2.32767e-19
8.77824e-18
2.23768e-16
2.6617e-15
6.01986e-33
4.19907e-30
1.44595e-27
3.18838e-25
4.8299e-23
4.25288e-21
2.35572e-19
8.86524e-18
2.25604e-16
2.6767e-15
6.72792e-33
4.6864e-30
1.60876e-27
3.52791e-25
5.26678e-23
4.50728e-21
2.46325e-19
9.19481e-18
2.32347e-16
2.72135e-15
5.44671e-33
4.0472e-30
1.46188e-27
3.28365e-25
4.75366e-23
3.97813e-21
2.20884e-19
8.42827e-18
2.1007e-16
2.38291e-15
8.22289e-36
6.44577e-33
2.48919e-30
6.01703e-28
8.91002e-26
8.01711e-24
4.87865e-22
2.04656e-20
5.5689e-19
7.0959e-18
9.00059e-36
6.69572e-33
2.4794e-30
5.92576e-28
9.73058e-26
9.16448e-24
5.58494e-22
2.34831e-20
6.74645e-19
8.98082e-18
7.8376e-36
5.85411e-33
2.17993e-30
5.24907e-28
8.76231e-26
8.55949e-24
5.30973e-22
2.25716e-20
6.54432e-19
8.85575e-18
7.53461e-36
5.63629e-33
2.10289e-30
5.07551e-28
8.50876e-26
8.38807e-24
5.2271e-22
2.2284e-20
6.4757e-19
8.79294e-18
7.47041e-36
5.5897e-33
2.08627e-30
5.03775e-28
8.45265e-26
8.34965e-24
5.20838e-22
2.22181e-20
6.45968e-19
8.77736e-18
7.46451e-36
5.58588e-33
2.08505e-30
5.03527e-28
8.44917e-26
8.34674e-24
5.20679e-22
2.22121e-20
6.45812e-19
8.77565e-18
7.5095e-36
5.61841e-33
2.09661e-30
5.06136e-28
8.48744e-26
8.37301e-24
5.21957e-22
2.2257e-20
6.46898e-19
8.78616e-18
7.72087e-36
5.77301e-33
2.15212e-30
5.18772e-28
8.67126e-26
8.49396e-24
5.27667e-22
2.24523e-20
6.51466e-19
8.82601e-18
8.4975e-36
6.34679e-33
2.35996e-30
5.66209e-28
9.33484e-26
8.88585e-24
5.44645e-22
2.29893e-20
6.62482e-19
8.86447e-18
5.80633e-36
4.64611e-33
1.83036e-30
4.53303e-28
7.23819e-26
6.75148e-24
4.21849e-22
1.827e-20
5.22844e-19
6.80259e-18
7.5635e-39
6.30078e-36
2.59926e-33
6.74829e-31
1.0791e-28
1.0542e-26
7.00504e-25
3.22862e-23
9.71268e-22
1.37045e-20
9.88794e-39
7.81465e-36
3.08945e-33
7.92424e-31
1.4041e-28
1.43432e-26
9.53373e-25
4.3992e-23
1.39644e-21
2.05722e-20
8.85984e-39
7.02983e-36
2.79436e-33
7.21957e-31
1.30011e-28
1.37717e-26
9.31544e-25
4.3446e-23
1.39147e-21
2.08354e-20
8.55927e-39
6.8015e-36
2.70877e-33
7.01475e-31
1.26858e-28
1.35607e-26
9.21414e-25
4.30952e-23
1.38334e-21
2.07848e-20
8.49338e-39
6.75082e-36
2.68957e-33
6.96818e-31
1.26121e-28
1.35091e-26
9.18822e-25
4.30007e-23
1.38097e-21
2.07638e-20
8.48799e-39
6.74729e-36
2.68842e-33
6.96589e-31
1.26091e-28
1.35068e-26
9.18699e-25
4.29961e-23
1.38086e-21
2.0763e-20
8.53351e-39
6.78206e-36
2.70154e-33
6.99741e-31
1.26579e-28
1.35403e-26
9.20337e-25
4.30538e-23
1.38224e-21
2.07739e-20
8.74139e-39
6.94307e-36
2.76296e-33
7.14653e-31
1.2887e-28
1.36877e-26
9.2712e-25
4.32772e-23
1.38702e-21
2.07944e-20
9.40337e-39
7.46098e-36
2.96207e-33
7.62902e-31
1.35772e-28
1.40134e-26
9.3649e-25
4.33634e-23
1.38032e-21
2.04473e-20
5.4334e-39
4.6273e-36
1.95529e-33
5.23318e-31
9.03475e-29
9.16096e-27
6.25403e-25
2.97575e-23
9.45083e-22
1.36414e-20
5.89867e-42
5.19233e-39
2.26982e-36
6.26473e-34
1.06859e-31
1.11761e-29
7.98382e-28
3.97497e-26
1.29828e-24
1.99203e-23
9.3235e-42
7.78469e-39
3.26034e-36
8.88664e-34
1.67919e-31
1.83556e-29
1.31094e-27
6.5309e-26
2.25064e-24
3.60494e-23
8.68749e-42
7.28208e-39
3.0663e-36
8.41791e-34
1.6164e-31
1.8321e-29
1.33144e-27
6.70361e-26
2.33072e-24
3.79467e-23
8.46129e-42
7.103e-39
2.99658e-36
8.24552e-34
1.58999e-31
1.81865e-29
1.32763e-27
6.70334e-26
2.33589e-24
3.81623e-23
8.41185e-42
7.06326e-39
2.98088e-36
8.20598e-34
1.58365e-31
1.81504e-29
1.32631e-27
6.70083e-26
2.33615e-24
3.81938e-23
8.40582e-42
7.05898e-39
2.97938e-36
8.20273e-34
1.58321e-31
1.81468e-29
1.32611e-27
6.70002e-26
2.33593e-24
3.81923e-23
8.44234e-42
7.08804e-39
2.99078e-36
8.23114e-34
1.58762e-31
1.81719e-29
1.327e-27
6.70144e-26
2.33558e-24
3.81683e-23
8.59678e-42
7.21308e-39
3.04049e-36
8.35636e-34
1.60676e-31
1.82611e-29
1.32884e-27
6.69595e-26
2.32958e-24
3.79779e-23
8.98231e-42
7.52698e-39
3.16506e-36
8.66269e-34
1.64442e-31
1.81624e-29
1.30387e-27
6.51654e-26
2.25155e-24
3.62814e-23
4.4353e-42
3.98962e-39
1.79044e-36
5.12069e-34
9.46884e-32
1.03071e-29
7.56905e-28
3.88944e-26
1.34566e-24
2.11683e-23
3.9958e-45
3.70166e-42
1.70604e-39
4.97505e-37
8.98745e-35
9.98165e-33
7.59658e-31
4.04493e-29
1.4188e-27
2.34105e-26
7.67907e-45
6.74703e-42
2.97872e-39
8.5765e-37
1.71622e-34
1.99178e-32
1.51507e-30
8.06991e-29
2.98693e-27
5.14495e-26
7.50435e-45
6.61924e-42
2.93801e-39
8.51993e-37
1.73248e-34
2.08483e-32
1.61369e-30
8.68677e-29
3.24396e-27
5.68035e-26
7.3898e-45
6.52788e-42
2.90295e-39
8.43774e-37
1.72302e-34
2.09248e-32
1.62695e-30
8.78321e-29
3.28751e-27
5.77684e-26
7.36346e-45
6.50622e-42
2.89438e-39
8.41668e-37
1.72013e-34
2.09318e-32
1.62913e-30
8.80051e-29
3.29563e-27
5.79537e-26
7.36057e-45
6.50437e-42
2.89382e-39
8.4158e-37
1.72014e-34
2.09336e-32
1.62934e-30
8.80191e-29
3.29622e-27
5.79672e-26
7.37971e-45
6.51968e-42
2.89977e-39
8.43007e-37
1.7219e-34
2.09258e-32
1.62756e-30
8.78816e-29
3.28987e-27
5.78278e-26
7.45641e-45
6.58268e-42
2.92462e-39
8.49006e-37
1.72871e-34
2.0861e-32
1.61679e-30
8.71037e-29
3.2549e-27
5.70758e-26
7.53047e-45
6.63704e-42
2.9407e-39
8.50018e-37
1.70892e-34
2.00443e-32
1.53248e-30
8.18766e-29
3.0383e-27
5.26811e-26
3.21081e-45
3.03358e-42
1.43605e-39
4.35565e-37
8.57843e-35
9.94852e-33
7.7856e-31
4.27719e-29
1.59409e-27
2.70499e-26
2.43709e-48
2.36858e-45
1.1467e-42
3.51812e-40
6.69857e-38
7.85736e-36
6.33201e-34
3.58133e-32
1.33886e-30
2.35699e-29
5.70799e-48
5.26116e-45
2.4396e-42
7.38907e-40
1.55842e-37
1.90997e-35
1.53812e-33
8.70063e-32
3.43282e-30
6.30887e-29
5.88141e-48
5.44214e-45
2.5371e-42
7.73957e-40
1.65878e-37
2.1081e-35
1.72756e-33
9.87703e-32
3.93208e-30
7.34735e-29
5.86664e-48
5.43656e-45
2.53932e-42
7.7643e-40
1.67114e-37
2.14338e-35
1.76451e-33
1.01175e-31
4.03724e-30
7.5709e-29
5.86338e-48
5.43485e-45
2.53945e-42
7.76829e-40
1.67338e-37
2.15058e-35
1.77221e-33
1.01682e-31
4.05956e-30
7.61849e-29
5.86145e-48
5.43367e-45
2.53913e-42
7.76801e-40
1.67351e-37
2.15096e-35
1.77263e-33
1.01709e-31
4.06076e-30
7.62122e-29
5.86551e-48
5.43592e-45
2.53937e-42
7.76578e-40
1.67188e-37
2.14587e-35
1.76713e-33
1.01345e-31
4.04466e-30
7.58734e-29
5.87168e-48
5.43717e-45
2.53695e-42
7.7466e-40
1.66245e-37
2.11893e-35
1.73878e-33
9.94919e-32
3.96354e-30
7.41766e-29
5.71075e-48
5.27672e-45
2.45431e-42
7.45999e-40
1.58073e-37
1.95889e-35
1.58571e-33
8.99754e-32
3.55963e-30
6.59016e-29
2.11458e-48
2.08949e-45
1.03794e-42
3.31898e-40
6.93155e-38
8.51542e-36
7.05528e-34
4.11478e-32
1.63901e-30
2.97925e-29
1.13077e-21
2.82578e-19
3.24081e-17
2.14942e-15
8.77594e-14
2.23303e-12
3.51323e-11
3.36114e-10
1.90861e-09
5.05019e-09
3.64265e-24
1.07517e-21
1.54288e-19
1.34309e-17
7.4871e-16
2.68891e-14
6.14298e-13
8.7312e-12
7.45761e-11
3.21354e-10
8.86366e-27
3.04029e-24
5.32494e-22
5.88251e-20
4.28951e-18
2.06234e-16
6.41185e-15
1.25025e-13
1.46327e-12
1.02514e-11
1.62266e-29
6.35549e-27
1.3261e-24
1.80323e-22
1.65803e-20
1.02203e-18
4.11166e-17
1.03726e-15
1.53607e-14
8.93833e-14
2.22264e-32
9.78046e-30
2.38078e-27
3.88698e-25
4.38011e-23
3.35254e-21
1.68412e-19
5.28598e-18
9.57178e-17
5.85796e-16
2.25117e-35
1.09765e-32
3.0657e-30
5.89944e-28
7.98834e-26
7.43749e-24
4.56764e-22
1.74956e-20
3.80691e-19
2.46324e-18
1.64455e-38
8.78627e-36
2.78073e-33
6.22841e-31
1.00167e-28
1.12443e-26
8.42621e-25
3.93477e-23
1.0281e-21
7.00484e-21
8.24164e-42
4.78274e-39
1.70172e-36
4.41803e-34
8.45208e-32
1.14896e-29
1.05356e-27
6.05121e-26
1.94515e-24
1.40214e-23
2.5615e-45
1.61012e-42
6.43855e-40
1.93835e-37
4.40426e-35
7.26503e-33
8.24061e-31
5.98127e-29
2.48949e-27
1.89431e-26
3.75002e-49
2.54778e-46
1.14158e-43
3.97206e-41
1.07183e-38
2.15597e-36
3.07511e-34
2.93499e-32
1.71718e-30
1.21423e-29
3.69878e-25
1.05995e-22
1.42658e-20
1.17757e-18
6.56435e-17
2.5811e-15
7.30372e-14
1.49952e-12
2.21527e-11
1.70674e-10
2.06459e-27
6.62223e-25
1.02651e-22
9.98713e-21
6.66637e-19
3.12242e-17
8.55846e-16
-5.12832e-14
-2.187e-11
-5.48711e-09
8.99126e-30
3.20108e-27
5.6512e-25
6.40962e-23
5.21661e-21
3.91602e-19
5.87231e-17
1.62171e-14
3.94051e-12
6.46267e-10
3.04918e-32
1.19634e-29
2.38764e-27
3.12998e-25
2.97585e-23
2.24568e-21
8.57372e-20
-6.6928e-17
-3.96608e-14
-1.18132e-11
7.99559e-35
3.4381e-32
7.73308e-30
1.17281e-27
1.30402e-25
9.44932e-24
-1.20165e-21
-1.11595e-18
-3.87214e-16
-6.15737e-14
1.59568e-37
7.48655e-35
1.89666e-32
3.34992e-30
4.49005e-28
4.0218e-26
-5.3668e-24
-5.72884e-21
-2.12442e-18
-3.54259e-16
2.35188e-40
1.19899e-37
3.41987e-35
7.06868e-33
1.16289e-30
1.46603e-28
-2.42433e-27
-1.5028e-23
-7.52053e-21
-1.63107e-18
2.42245e-43
1.33669e-40
4.29343e-38
1.04491e-35
2.13772e-33
3.74615e-31
3.3033e-29
-2.44083e-26
-2.00616e-23
-5.96237e-21
1.57745e-46
9.45078e-44
3.45742e-41
1.01036e-38
2.61907e-36
6.20161e-34
1.09627e-31
-2.03564e-29
-3.92026e-26
-1.7131e-23
4.9369e-50
3.22249e-47
1.35223e-44
4.78628e-42
1.58039e-39
4.98969e-37
1.35461e-34
4.06918e-33
-4.32047e-29
-3.36329e-26
2.33279e-29
1.48215e-26
4.37098e-24
7.79992e-22
8.90809e-20
5.7002e-18
2.36685e-16
6.85837e-15
1.41066e-13
4.80065e-12
1.19494e-31
8.21575e-29
2.62784e-26
5.01467e-24
5.97947e-22
4.6001e-20
6.27522e-18
3.02065e-15
1.75966e-12
9.00311e-10
4.77799e-34
3.38324e-31
8.20279e-29
-3.55278e-26
-5.89347e-23
-4.51214e-20
-2.37532e-17
-8.66944e-15
-2.05087e-12
-2.82872e-10
1.60926e-36
1.77334e-33
2.088e-30
2.87539e-27
3.0965e-24
2.33398e-21
1.2037e-18
4.13906e-16
9.16123e-14
1.26327e-11
4.17792e-39
6.20001e-36
1.02953e-32
1.5659e-29
1.64562e-26
1.10318e-23
4.29214e-21
6.80623e-19
-1.24784e-16
-7.98533e-14
7.7136e-42
1.22106e-38
2.1014e-35
3.10908e-32
2.89563e-29
1.26896e-26
-2.42409e-24
-5.7806e-21
-2.7363e-18
-5.23067e-16
9.86168e-45
1.47475e-41
2.39793e-38
3.27813e-35
2.09527e-32
-1.4521e-29
-4.36554e-26
-4.03892e-23
-1.83661e-20
-3.58854e-18
8.28573e-48
1.0886e-44
1.68858e-41
2.27518e-38
6.76597e-36
-4.4983e-32
-1.07696e-28
-1.23103e-25
-7.5967e-23
-2.09365e-20
3.89211e-51
3.75166e-48
6.41483e-45
9.98993e-42
-6.20614e-39
-7.24174e-35
-1.8945e-31
-2.8041e-28
-2.40609e-25
-9.51352e-23
5.18366e-55
-4.50872e-52
1.42404e-50
1.42726e-45
-6.99633e-42
-5.19828e-38
-1.67453e-34
-3.40769e-31
-4.386e-28
-2.83514e-25
1.63222e-32
1.20821e-29
4.3175e-27
9.5331e-25
1.32424e-22
1.0647e-20
5.59463e-19
2.09053e-17
5.40222e-16
-2.82634e-15
5.13675e-35
4.09687e-32
1.57364e-29
3.64615e-27
5.20003e-25
4.19065e-23
-3.86075e-22
-2.90124e-18
-2.94339e-15
-2.71397e-12
1.37695e-37
1.21065e-34
6.58819e-32
5.67018e-29
7.50659e-26
8.18255e-23
6.25426e-20
3.2076e-17
1.04194e-14
1.98797e-12
2.35454e-40
-3.70367e-37
-2.55253e-33
-6.43033e-30
-9.97449e-27
-1.01256e-23
-6.73193e-21
-2.87484e-18
-7.68057e-16
-1.25517e-13
3.67303e-43
-5.6594e-40
-2.15057e-36
-8.39653e-34
6.69301e-30
1.64217e-26
1.89401e-23
1.26026e-20
5.06113e-18
1.25681e-15
6.91838e-46
2.34953e-42
1.75795e-38
7.24694e-35
1.70556e-31
2.45904e-28
2.19613e-25
1.1854e-22
3.63081e-20
5.21292e-18
9.53766e-49
5.12511e-45
3.55997e-41
1.49439e-37
3.89403e-34
6.54467e-31
7.03759e-28
4.61604e-25
1.66721e-22
2.56838e-20
8.44371e-52
4.60228e-48
2.93309e-44
1.28189e-40
3.82426e-37
7.94057e-34
1.13047e-30
1.03152e-27
5.26686e-25
1.09273e-22
4.70889e-55
2.92686e-51
1.77372e-47
8.05192e-44
2.79674e-40
7.38516e-37
1.41764e-33
1.81266e-30
1.3147e-27
3.48324e-25
9.36978e-59
9.30625e-55
6.29667e-51
2.98848e-47
1.16065e-43
3.76213e-40
9.6322e-37
1.76049e-33
1.904e-30
6.22576e-28
1.79319e-35
1.43834e-32
5.61028e-30
1.34306e-27
2.01652e-25
1.77642e-23
1.03291e-21
4.11969e-20
1.08558e-18
1.19714e-17
4.95364e-38
4.23897e-35
1.76167e-32
4.44267e-30
6.91064e-28
6.09649e-26
4.20939e-25
-3.00283e-21
-2.09581e-18
-8.18345e-16
1.13232e-40
1.04232e-37
5.36727e-35
3.54443e-32
4.27006e-29
4.59163e-26
3.20187e-23
1.22903e-20
1.20211e-18
-9.17648e-16
1.90129e-43
-1.0717e-41
-8.7121e-37
-2.48548e-33
-3.99866e-30
-3.87145e-27
-2.05177e-24
-3.26576e-22
2.39494e-19
1.56477e-16
2.51547e-46