/*--------------------------------*- C++ -*----------------------------------*\
| =========                 |                                                 |
| \\      /  F ield         | OpenFOAM: The Open Source CFD Toolbox           |
|  \\    /   O peration     | Version:  2.4.0                                 |
|   \\  /    A nd           | Web:      www.OpenFOAM.org                      |
|    \\/     M anipulation  |                                                 |
\*---------------------------------------------------------------------------*/
FoamFile
{
    version     2.0;
    format      ascii;
    class       volScalarField;
    location    "10";
    object      phi;
}
// * * * * * * * * * * * * * * * * * * * * * * * * * * * * * * * * * * * * * //

dimensions      [1 2 -3 0 0 -1 0];

internalField   nonuniform List<scalar> 
300000
(
451.909
452.776
453.677
452.843
447.625
435.402
416.062
392.09
366.08
339.845
314.436
290.381
267.897
247.032
227.745
209.954
193.559
178.456
164.546
151.732
139.925
129.044
119.014
109.767
101.239
93.3739
86.1189
79.4261
73.2513
67.5541
62.2973
57.4469
52.9713
48.8417
45.0313
41.5154
38.2715
35.2786
32.5174
29.97
27.6199
25.4521
23.4524
21.6078
19.9065
18.3373
16.8901
15.5555
14.3247
13.1897
12.1431
11.1781
10.2883
9.46797
8.71165
8.0144
7.37163
6.77913
6.23298
5.72959
5.26565
4.83808
4.44406
4.081
3.74647
3.43828
3.15438
2.89288
2.65205
2.4303
2.22614
2.03823
1.86531
1.70624
1.55995
1.42548
1.30193
1.18848
1.08436
0.988888
0.901426
0.821389
0.748246
0.681508
0.620731
0.565509
0.515474
0.470291
0.429657
0.393302
0.360982
0.332481
0.307608
0.286196
0.268101
0.253203
0.241405
0.232625
0.226806
0.223924
458.744
460.83
464.222
466.935
465.001
452.669
429.711
401.72
372.565
344.166
317.34
292.369
269.29
248.03
228.477
210.501
193.976
178.78
164.8
151.934
140.088
129.177
119.123
109.857
101.314
93.4368
86.1719
79.4709
73.2894
67.5866
62.3253
57.4709
52.9921
48.8596
45.0468
41.5289
38.2833
35.2889
32.5263
29.9778
27.6268
25.4581
23.4577
21.6125
19.9106
18.341
16.8933
15.5583
14.3272
13.1919
12.1451
11.1798
10.2899
9.46935
8.71288
8.01549
7.37261
6.78
6.23376
5.73028
5.26626
4.83863
4.44455
4.08143
3.74687
3.43864
3.1547
2.89316
2.65231
2.43052
2.22634
2.03841
1.86547
1.70638
1.56008
1.4256
1.30204
1.18857
1.08445
0.988965
0.901495
0.821451
0.748302
0.681558
0.620776
0.56555
0.515511
0.470325
0.429689
0.393331
0.36101
0.332507
0.307632
0.286218
0.268121
0.253223
0.241424
0.232645
0.226816
0.223871
471.794
476.529
485.754
498.009
507.156
494.744
460.04
421.569
385.319
352.459
322.86
296.142
271.938
249.937
229.881
211.557
194.784
179.408
165.296
152.33
140.408
129.437
119.337
110.034
101.462
93.5609
86.2766
79.5596
73.3649
67.6512
62.3806
57.5185
53.0331
48.8951
45.0776
41.5557
38.3066
35.3092
32.5441
29.9934
27.6405
25.4701
23.4682
21.6218
19.9188
18.3482
16.8997
15.564
14.3322
13.1964
12.149
11.1833
10.293
9.47211
8.71533
8.01768
7.37455
6.78173
6.2353
5.73166
5.26749
4.83973
4.44553
4.08231
3.74765
3.43934
3.15532
2.89372
2.65281
2.43097
2.22675
2.03877
1.8658
1.70667
1.56034
1.42583
1.30225
1.18876
1.08461
0.989117
0.901631
0.821575
0.748413
0.681658
0.620867
0.565632
0.515586
0.470393
0.429751
0.393389
0.361063
0.332557
0.307678
0.286261
0.268161
0.253262
0.241461
0.23268
0.226869
0.223983
489.601
498.537
518.2
552.144
599.65
587.848
513.474
451.836
403.383
363.847
330.378
301.297
275.585
252.586
231.849
213.048
195.934
180.308
166.009
152.902
140.871
129.816
119.65
110.294
101.679
93.7431
86.4305
79.6902
73.4762
67.7463
62.4623
57.5889
53.0939
48.9477
45.1232
41.5954
38.3412
35.3394
32.5706
30.0166
27.6608
25.488
23.4839
21.6356
19.931
18.359
16.9093
15.5724
14.3397
13.203
12.1549
11.1885
10.2976
9.47622
8.71899
8.02093
7.37745
6.78431
6.2376
5.73372
5.26933
4.84136
4.447
4.08362
3.74882
3.44038
3.15626
2.89456
2.65356
2.43164
2.22735
2.03931
1.86628
1.7071
1.56073
1.42618
1.30256
1.18904
1.08487
0.989344
0.901836
0.821759
0.748579
0.681808
0.621002
0.565755
0.515698
0.470495
0.429845
0.393475
0.361143
0.332631
0.307747
0.286325
0.268222
0.253319
0.241517
0.232734
0.226906
0.224002
509.662
523.561
557.407
632.956
838.148
831.346
594.17
488.663
423.947
376.699
338.957
307.276
279.885
255.757
234.237
214.878
197.358
181.432
166.906
153.626
141.461
130.301
120.05
110.627
101.959
93.9788
86.63
79.8599
73.621
67.8704
62.5689
57.6808
53.1733
49.0165
45.183
41.6474
38.3866
35.3791
32.6053
30.047
27.6875
25.5115
23.5046
21.6539
19.9471
18.3732
16.9218
15.5835
14.3495
13.2117
12.1626
11.1954
10.3037
9.48166
8.72383
8.02524
7.38129
6.78773
6.24065
5.73644
5.27175
4.84353
4.44893
4.08535
3.75037
3.44177
3.1575
2.89567
2.65455
2.43253
2.22814
2.04002
1.86692
1.70768
1.56124
1.42664
1.30297
1.18941
1.0852
0.989645
0.902107
0.822003
0.748799
0.682008
0.621183
0.565919
0.515847
0.470631
0.429969
0.393589
0.361249
0.332729
0.307839
0.286411
0.268303
0.253396
0.24159
0.232806
0.226984
0.224083
528.912
546.007
587.042
673.771
877.072
870.578
633.973
515.665
441.86
388.911
347.546
313.482
284.474
259.216
236.888
216.941
198.983
182.727
167.95
154.474
142.156
130.875
120.528
111.027
102.294
94.2623
86.8707
80.065
73.7965
68.021
62.6985
57.7927
53.2702
49.1006
45.2561
41.7111
38.4422
35.4277
32.6479
30.0844
27.7204
25.5403
23.5301
21.6763
19.9669
18.3907
16.9373
15.5972
14.3616
13.2225
12.1722
11.2039
10.3113
9.48837
8.7298
8.03056
7.38603
6.79196
6.24442
5.7398
5.27476
4.84622
4.45133
4.08749
3.75229
3.44348
3.15903
2.89704
2.65578
2.43363
2.22913
2.0409
1.86771
1.70839
1.56188
1.42721
1.30349
1.18987
1.08562
0.990019
0.902443
0.822306
0.749073
0.682255
0.621407
0.566122
0.516032
0.4708
0.430124
0.393731
0.36138
0.332851
0.307952
0.286517
0.268403
0.253491
0.241682
0.232894
0.227069
0.224166
545.681
564.233
607.708
695.411
888.142
881.495
654.331
533.715
455.866
399.438
355.444
319.457
289.044
262.753
239.657
219.132
200.735
184.14
169.099
155.416
142.934
131.521
121.068
111.48
102.677
94.5873
87.1474
80.3015
73.9993
68.1954
62.849
57.9228
53.383
49.1987
45.3415
41.7856
38.5073
35.4847
32.6978
30.1282
27.7589
25.5743
23.56
21.7027
19.9902
18.4113
16.9556
15.6134
14.376
13.2352
12.1835
11.214
10.3202
9.49632
8.73687
8.03686
7.39165
6.79697
6.24889
5.74379
5.27832
4.8494
4.45418
4.09004
3.75456
3.44552
3.16085
2.89867
2.65724
2.43494
2.2303
2.04195
1.86865
1.70923
1.56264
1.42789
1.3041
1.19042
1.08611
0.990463
0.902844
0.822667
0.749399
0.682549
0.621673
0.566364
0.516252
0.471
0.430307
0.3939
0.361536
0.332996
0.308087
0.286643
0.268522
0.253605
0.241791
0.233
0.227174
0.22427
559.541
578.517
622.277
708.412
893.283
886.442
666.075
545.895
466.466
408.1
362.355
324.932
293.384
266.207
242.424
221.362
202.545
185.619
170.316
156.423
143.772
132.222
121.657
111.978
103.1
94.9468
87.4546
80.5649
74.2258
68.3908
63.0179
58.0692
53.5102
49.3093
45.438
41.8699
38.5811
35.5494
32.7546
30.1781
27.8028
25.613
23.5941
21.7328
20.0169
18.4349
16.9764
15.6319
14.3924
13.2498
12.1964
11.2255
10.3304
9.50543
8.74499
8.04409
7.3981
6.80272
6.25403
5.74838
5.28242
4.85306
4.45745
4.09296
3.75718
3.44786
3.16295
2.90055
2.65892
2.43645
2.23165
2.04316
1.86973
1.7102
1.56351
1.42868
1.3048
1.19106
1.08668
0.990976
0.903306
0.823084
0.749775
0.682889
0.621981
0.566643
0.516506
0.471232
0.430519
0.394095
0.361716
0.333162
0.308242
0.286788
0.268659
0.253735
0.241916
0.233122
0.227294
0.22439
570.703
589.617
632.867
717.066
896.394
889.374
673.609
554.424
474.496
415.103
368.243
329.796
297.373
269.472
245.098
223.559
204.357
187.12
171.564
157.467
144.648
132.96
122.282
112.509
103.552
95.3337
87.7865
80.8504
74.4721
68.6038
63.2026
58.2296
53.6498
49.4311
45.5444
41.963
38.6627
35.621
32.8175
30.2335
27.8516
25.656
23.6321
21.7664
20.0466
18.4612
16.9997
15.6526
14.4108
13.2661
12.2109
11.2384
10.3419
9.51565
8.7541
8.05221
7.40534
6.80918
6.2598
5.75353
5.28702
4.85717
4.46113
4.09626
3.76013
3.4505
3.16531
2.90267
2.66081
2.43815
2.23317
2.04453
1.87096
1.7113
1.5645
1.42956
1.3056
1.19177
1.08732
0.991556
0.903828
0.823554
0.750199
0.683273
0.622329
0.566959
0.516793
0.471494
0.430759
0.394316
0.361919
0.33335
0.308417
0.286953
0.268814
0.253883
0.242058
0.23326
0.22743
0.224524
579.598
598.268
640.796
723.244
898.529
891.357
678.84
560.644
480.667
420.753
373.2
334.043
300.964
272.488
247.623
225.673
206.128
188.607
172.816
158.523
145.542
133.72
122.929
113.062
104.026
95.741
88.1374
81.1535
74.7344
68.8313
63.4003
58.4019
53.8001
49.5624
45.6593
42.0638
38.7511
35.6987
32.8859
30.2938
27.9048
25.703
23.6736
21.8031
20.0791
18.49
17.0253
15.6753
14.4309
13.284
12.2269
11.2525
10.3545
9.5269
8.76413
8.06116
7.41332
6.81631
6.26616
5.75922
5.29211
4.86172
4.4652
4.0999
3.76338
3.45342
3.16792
2.90501
2.66291
2.44003
2.23486
2.04604
1.87231
1.71252
1.56559
1.43055
1.30648
1.19257
1.08804
0.992199
0.904408
0.824077
0.750672
0.6837
0.622715
0.56731
0.517112
0.471785
0.431025
0.394561
0.362145
0.33356
0.308612
0.287135
0.268987
0.254047
0.242215
0.233414
0.227581
0.224673
586.673
605.058
646.877
727.863
900.097
892.798
682.682
565.346
485.498
425.337
377.36
337.717
304.154
275.23
249.966
227.668
207.825
190.051
174.046
159.572
146.438
134.487
123.587
113.628
104.513
96.162
88.5017
81.4693
75.0088
69.0701
63.6085
58.5837
53.9591
49.7017
45.7815
42.171
38.8454
35.7818
32.9591
30.3584
27.9618
25.7534
23.7182
21.8427
20.1141
18.5211
17.0529
15.6998
14.4527
13.3034
12.2441
11.2679
10.3682
9.5391
8.77501
8.07087
7.42199
6.82406
6.27308
5.7654
5.29764
4.86667
4.46963
4.10386
3.76694
3.4566
3.17077
2.90756
2.6652
2.44208
2.2367
2.04769
1.8738
1.71385
1.56679
1.43162
1.30745
1.19344
1.08882
0.992904
0.905043
0.82465
0.751189
0.684168
0.623139
0.567695
0.517462
0.472104
0.431318
0.394829
0.362392
0.333789
0.308826
0.287336
0.269176
0.254227
0.242389
0.233583
0.227747
0.224838
592.317
610.432
651.628
731.424
901.295
893.895
685.621
569.006
489.351
429.09
380.856
340.882
306.966
277.697
252.113
229.527
209.429
191.433
175.236
160.597
147.322
135.25
124.246
114.198
105.007
96.5906
88.8743
81.7937
75.2916
69.3171
63.8245
58.7728
54.1249
49.8473
45.9094
42.2837
38.9447
35.8693
33.0364
30.4266
28.0222
25.8069
23.7656
21.8846
20.1514
18.5541
17.0823
15.7259
14.4759
13.324
12.2625
11.2843
10.3829
9.55217
8.78668
8.08129
7.4313
6.83237
6.28052
5.77205
5.30359
4.87199
4.47439
4.10813
3.77076
3.46002
3.17385
2.91032
2.66767
2.4443
2.23869
2.04948
1.8754
1.71529
1.56808
1.43278
1.30849
1.19438
1.08967
0.993666
0.90573
0.82527
0.751749
0.684675
0.623599
0.568111
0.517841
0.47245
0.431634
0.39512
0.362661
0.334038
0.309058
0.287553
0.269382
0.254423
0.242577
0.233766
0.227927
0.225015
596.843
614.723
655.395
734.228
902.236
894.756
687.936
571.923
492.473
432.193
383.806
343.607
309.434
279.901
254.063
231.24
210.928
192.74
176.373
161.586
148.182
135.997
124.897
114.764
105.501
97.0212
89.2503
82.1225
75.5794
69.5693
64.0457
58.9671
54.2957
49.9976
46.0419
42.4005
39.0478
35.9604
33.117
30.498
28.0854
25.8629
23.8153
21.9287
20.1905
18.589
17.1132
15.7535
14.5005
13.3459
12.282
11.3017
10.3984
9.56602
8.79905
8.09234
7.44118
6.84121
6.28842
5.77912
5.30992
4.87766
4.47947
4.11268
3.77483
3.46368
3.17712
2.91325
2.67031
2.44666
2.24081
2.05138
1.87711
1.71683
1.56946
1.43403
1.30961
1.19538
1.09057
0.994482
0.906466
0.825935
0.752349
0.685218
0.624091
0.568558
0.518247
0.472821
0.431974
0.395431
0.362948
0.334304
0.309306
0.287786
0.269602
0.254632
0.242778
0.233962
0.228119
0.225206
600.496
618.178
658.418
736.471
902.988
895.446
689.8
574.291
495.039
434.781
386.307
345.957
311.596
281.863
255.824
232.808
212.316
193.964
177.449
162.531
149.01
136.723
125.532
115.321
105.989
97.449
89.6256
82.452
75.869
69.8239
64.2699
59.1646
54.4698
50.1513
46.1776
42.5204
39.1539
36.0543
33.2002
30.5717
28.1508
25.921
23.8669
21.9746
20.2313
18.6253
17.1456
15.7823
14.5262
13.3688
12.3025
11.3199
10.4147
9.58056
8.81204
8.10396
7.45157
6.8505
6.29674
5.78657
5.31659
4.88364
4.48482
4.11748
3.77914
3.46754
3.18058
2.91636
2.6731
2.44916
2.24306
2.0534
1.87893
1.71846
1.57093
1.43534
1.3108
1.19645
1.09153
0.995348
0.907247
0.826639
0.752986
0.685795
0.624613
0.569032
0.518678
0.473214
0.432334
0.395762
0.363253
0.334587
0.309569
0.288034
0.269836
0.254855
0.242992
0.234169
0.228323
0.225407
603.464
620.983
660.868
738.288
903.599
896.008
691.325
576.241
497.174
436.959
388.44
347.987
313.491
283.604
257.406
234.234
213.592
195.101
178.459
163.424
149.8
137.42
126.147
115.863
106.466
97.8698
89.9966
82.7791
76.1575
70.0786
64.4948
59.3633
54.6456
50.3068
46.3153
42.6424
39.262
36.1502
33.2853
30.6473
28.218
25.9807
23.92
22.0219
20.2734
18.6628
17.179
15.8121
14.5528
13.3926
12.3237
11.3389
10.4316
9.5957
8.82558
8.11607
7.46241
6.86021
6.30543
5.79436
5.32356
4.88989
4.49043
4.1225
3.78365
3.47158
3.18421
2.91962
2.67602
2.45179
2.24542
2.05552
1.88083
1.72017
1.57247
1.43673
1.31204
1.19757
1.09255
0.99626
0.908069
0.827382
0.753657
0.686402
0.625164
0.569532
0.519133
0.473629
0.432713
0.396111
0.363574
0.334885
0.309847
0.288295
0.270082
0.255089
0.243217
0.234388
0.228538
0.22562
605.892
623.277
662.871
739.773
904.1
896.473
692.588
577.867
498.966
438.805
390.266
349.746
315.151
285.148
258.825
235.526
214.761
196.152
179.4
164.264
150.547
138.084
126.736
116.385
106.93
98.2802
90.36
83.1009
76.4426
70.3312
64.7186
59.5617
54.8215
50.4628
46.4538
42.7654
39.3713
36.2474
33.3717
30.7242
28.2864
26.0416
23.9743
22.0703
20.3166
18.7013
17.2134
15.8427
14.5801
13.417
12.3455
11.3584
10.4491
9.61134
8.83958
8.12861
7.47363
6.87026
6.31444
5.80243
5.3308
4.89638
4.49625
4.12773
3.78834
3.47579
3.18799
2.92301
2.67907
2.45453
2.24788
2.05774
1.88282
1.72196
1.57408
1.43818
1.31335
1.19875
1.0936
0.997213
0.908929
0.828158
0.754359
0.687037
0.625739
0.570055
0.519609
0.474063
0.433111
0.396475
0.363911
0.335197
0.310138
0.288568
0.27034
0.255335
0.243453
0.234617
0.228762
0.225842
607.892
625.166
664.521
740.999
904.514
896.86
693.646
579.234
500.483
440.38
391.839
351.274
316.608
286.516
260.094
236.693
215.826
197.118
180.272
165.049
151.251
138.713
127.298
116.886
107.376
98.6774
90.7134
83.4153
76.7221
70.5797
64.9395
59.7582
54.9962
50.6183
46.5921
42.8885
39.4809
36.345
33.4587
30.8017
28.3555
26.1033
24.0293
22.1194
20.3604
18.7404
17.2484
15.874
14.6081
13.442
12.3679
11.3785
10.467
9.6274
8.85396
8.14149
7.48518
6.88062
6.32372
5.81076
5.33827
4.90308
4.50227
4.13313
3.79318
3.48014
3.19191
2.92653
2.68223
2.45737
2.25043
2.06003
1.88488
1.72382
1.57575
1.43968
1.3147
1.19997
1.0947
0.998204
0.909823
0.828965
0.755089
0.687698
0.626338
0.570598
0.520104
0.474515
0.433524
0.396855
0.364261
0.335522
0.310442
0.288852
0.27061
0.255591
0.2437
0.234856
0.228996
0.226074
609.548
626.732
665.89
742.016
904.86
897.185
694.539
580.393
501.776
441.73
393.197
352.605
317.887
287.728
261.229
237.745
216.793
198.002
181.077
165.778
151.909
139.306
127.83
117.364
107.803
99.0594
91.0548
83.7201
76.9942
70.8225
65.1562
59.9514
55.1686
50.7721
46.7293
43.0109
39.5901
36.4425
33.5457
30.8794
28.425
26.1653
24.0847
22.1689
20.4047
18.7801
17.2838
15.9057
14.6365
13.4675
12.3907
11.3989
10.4853
9.64378
8.86865
8.15466
7.49699
6.89121
6.33323
5.81929
5.34593
4.90996
4.50844
4.13867
3.79817
3.48462
3.19593
2.93014
2.68548
2.46029
2.25306
2.06239
1.88701
1.72573
1.57747
1.44123
1.3161
1.20123
1.09584
0.999228
0.910747
0.8298
0.755844
0.688381
0.626957
0.571161
0.520617
0.474983
0.433952
0.397248
0.364624
0.335858
0.310756
0.289147
0.270889
0.255857
0.243955
0.235103
0.229239
0.226315
610.929
628.037
667.033
742.867
905.15
897.459
695.298
581.382
502.884
442.894
394.375
353.768
319.013
288.802
262.242
238.691
217.671
198.81
181.817
166.452
152.521
139.861
128.331
117.815
108.209
99.4246
91.3825
84.0139
77.2574
71.0582
65.3672
60.1403
55.3376
50.9232
46.8645
43.1318
39.6983
36.5392
33.6323
30.9569
28.4943
26.2273
24.1402
22.2186
20.4492
18.8199
17.3195
15.9377
14.6652
13.4932
12.4137
11.4195
10.5038
9.6604
8.88356
8.16804
7.509
6.90199
6.34291
5.82798
5.35373
4.91697
4.51474
4.14434
3.80326
3.4892
3.20004
2.93384
2.68881
2.46328
2.25575
2.06482
1.88919
1.72769
1.57924
1.44282
1.31753
1.20252
1.097
1.00028
0.911697
0.830659
0.75662
0.689084
0.627595
0.571741
0.521144
0.475464
0.434393
0.397654
0.364999
0.336206
0.31108
0.289452
0.271176
0.256131
0.244218
0.235359
0.229488
0.226561
612.086
629.131
667.991
743.582
905.395
897.693
695.946
582.229
503.838
443.902
395.4
354.785
320.005
289.755
263.146
239.542
218.464
199.546
182.495
167.074
153.09
140.378
128.801
118.241
108.594
99.7718
91.6954
84.2957
77.5108
71.2859
65.5717
60.3238
55.5023
51.0709
46.997
43.2506
39.8048
36.6347
33.7178
31.0335
28.563
26.2889
24.1955
22.2682
20.4937
18.8598
17.3552
15.9698
14.6939
13.519
12.4369
11.4403
10.5225
9.67716
8.89861
8.18155
7.52114
6.9129
6.35271
5.83679
5.36165
4.92409
4.52114
4.15009
3.80843
3.49385
3.20423
2.93761
2.6922
2.46633
2.2585
2.06729
1.89142
1.7297
1.58104
1.44445
1.319
1.20384
1.0982
1.00136
0.91267
0.831538
0.757416
0.689804
0.628248
0.572334
0.521685
0.475958
0.434845
0.39807
0.365382
0.336561
0.311411
0.289763
0.271471
0.256412
0.244488
0.23562
0.229744
0.226814
613.06
630.053
668.799
744.186
905.603
897.893
696.502
582.959
504.662
444.776
396.294
355.677
320.879
290.6
263.954
240.306
219.182
200.215
183.114
167.646
153.615
140.859
129.24
118.64
108.957
100.1
91.9928
84.5644
77.7534
71.5047
65.7688
60.5012
55.6619
51.2145
47.1261
43.3667
39.909
36.7284
33.802
31.1091
28.6309
26.3499
24.2502
22.3173
20.5378
18.8994
17.3909
16.0018
14.7227
13.5448
12.4601
11.4611
10.5412
9.69398
8.91373
8.19515
7.53336
6.92388
6.36259
5.84567
5.36964
4.93127
4.52761
4.15591
3.81366
3.49856
3.20847
2.94142
2.69563
2.46943
2.26128
2.0698
1.89368
1.73173
1.58288
1.4461
1.32049
1.20519
1.09941
1.00245
0.91366
0.832433
0.758226
0.690538
0.628914
0.572939
0.522236
0.476461
0.435306
0.398493
0.365774
0.336924
0.31175
0.290081
0.271771
0.256698
0.244763
0.235887
0.230005
0.227073
613.884
630.833
669.484
744.699
905.78
898.064
696.981
583.589
505.377
445.537
397.076
356.461
321.652
291.35
264.674
240.992
219.829
200.821
183.68
168.17
154.099
141.304
129.648
119.013
109.297
100.41
92.2743
84.8197
77.9846
71.7138
65.9578
60.672
55.816
51.3535
47.2513
43.4795
40.0106
36.8198
33.8843
31.1832
28.6975
26.4098
24.3042
22.3658
20.5814
18.9387
17.4261
16.0335
14.7512
13.5705
12.4832
11.4819
10.5599
9.71079
8.92885
8.20875
7.5456
6.9349
6.3725
5.85459
5.37767
4.9385
4.53411
4.16176
3.81893
3.5033
3.21274
2.94527
2.6991
2.47255
2.26409
2.07233
1.89596
1.73379
1.58473
1.44778
1.322
1.20655
1.10064
1.00356
0.914663
0.83334
0.759047
0.691282
0.629589
0.573553
0.522795
0.476971
0.435774
0.398923
0.36617
0.337292
0.312093
0.290403
0.272076
0.256988
0.245041
0.236157
0.230269
0.227334
614.583
631.496
670.066
745.135
905.931
898.212
697.395
584.136
505.999
446.201
397.761
357.151
322.334
292.017
265.318
241.607
220.412
201.371
184.195
168.65
154.544
141.715
130.027
119.361
109.615
100.701
92.5395
85.0611
78.204
71.913
66.1384
60.8355
55.964
51.4873
47.3722
43.5887
40.1092
36.9088
33.9645
31.2555
28.7627
26.4686
24.3571
22.4135
20.6244
18.9773
17.461
16.0649
14.7795
13.5959
12.5061
11.5025
10.5785
9.7275
8.9439
8.2223
7.5578
6.94588
6.38239
5.8635
5.38569
4.94573
4.54062
4.16762
3.82421
3.50806
3.21702
2.94913
2.70258
2.47568
2.26692
2.07488
1.89825
1.73586
1.5866
1.44946
1.32352
1.20792
1.10188
1.00468
0.915674
0.834255
0.759876
0.692033
0.630271
0.574172
0.523359
0.477487
0.436246
0.399357
0.366571
0.337664
0.31244
0.290728
0.272383
0.257281
0.245323
0.23643
0.230537
0.227598
615.179
632.06
670.563
745.509
906.061
898.339
697.754
584.611
506.541
446.783
398.363
357.759
322.939
292.609
265.892
242.158
220.938
201.868
184.663
169.088
154.952
142.094
130.377
119.684
109.912
100.973
92.7886
85.2886
78.4115
72.1019
66.3102
60.9915
56.1056
51.6156
47.4885
43.6939
40.2044
36.9948
34.0423
31.3258
28.8262
26.5259
24.4088
22.4602
20.6665
19.0153
17.4952
16.0957
14.8073
13.621
12.5287
11.5229
10.5968
9.74405
8.95881
8.23574
7.56992
6.9568
6.39223
5.87237
5.39368
4.95293
4.54711
4.17347
3.82949
3.51281
3.22131
2.95299
2.70606
2.47882
2.26975
2.07743
1.90056
1.73794
1.58847
1.45115
1.32504
1.20929
1.10312
1.00581
0.91669
0.835175
0.760708
0.692788
0.630956
0.574795
0.523926
0.478005
0.43672
0.399794
0.366974
0.338037
0.312788
0.291055
0.272692
0.257575
0.245605
0.236704
0.230805
0.227864
615.689
632.544
670.988
745.829
906.173
898.449
698.066
585.025
507.015
447.292
398.892
358.296
323.474
293.135
266.404
242.652
221.411
202.318
185.088
169.487
155.326
142.442
130.7
119.983
110.188
101.227
93.0218
85.5023
78.607
72.2805
66.473
61.1398
56.2405
51.7382
47.5998
43.7949
40.296
37.0778
34.1174
31.3938
28.8877
26.5815
24.4591
22.5056
20.7075
19.0524
17.5287
16.126
14.8346
13.6456
12.5509
11.543
10.6149
9.76037
8.97354
8.24902
7.58189
6.9676
6.40197
5.88115
5.4016
4.96007
4.55355
4.17928
3.83472
3.51754
3.22557
2.95684
2.70952
2.48195
2.27257
2.07997
1.90285
1.74001
1.59034
1.45284
1.32656
1.21067
1.10436
1.00693
0.917706
0.836094
0.761541
0.693543
0.631642
0.575419
0.524494
0.478524
0.437196
0.400231
0.367377
0.338412
0.313137
0.291382
0.273001
0.257869
0.245887
0.236977
0.231073
0.228129
616.126
632.959
671.354
746.104
906.269
898.545
698.338
585.387
507.43
447.739
399.357
358.77
323.948
293.604
266.862
243.096
221.837
202.724
185.473
169.851
155.667
142.761
130.998
120.259
110.444
101.464
93.2395
85.7024
78.7906
72.4486
66.6268
61.2803
56.3686
51.8549
47.706
43.8915
40.3837
37.1575
34.1897
31.4593
28.9471
26.6353
24.5078
22.5497
20.7474
19.0884
17.5613
16.1555
14.8612
13.6697
12.5726
11.5626
10.6327
9.7764
8.98801
8.26209
7.59368
6.97825
6.41158
5.88982
5.40943
4.96713
4.55992
4.18503
3.83991
3.52222
3.22979
2.96065
2.71296
2.48505
2.27537
2.0825
1.90513
1.74206
1.5922
1.45451
1.32808
1.21204
1.1056
1.00805
0.918717
0.83701
0.762371
0.694296
0.632326
0.576041
0.525061
0.479041
0.43767
0.400667
0.367779
0.338784
0.313484
0.291708
0.273309
0.258162
0.246169
0.23725
0.231341
0.228394
616.502
633.316
671.669
746.342
906.353
898.628
698.575
585.703
507.793
448.132
399.768
359.189
324.368
294.02
267.271
243.492
222.219
203.091
185.822
170.181
155.979
143.054
131.271
120.514
110.681
101.683
93.442
85.8892
78.9624
72.6065
66.7715
61.4128
56.4897
51.9656
47.807
43.9835
40.4675
37.2337
34.259
31.5223
29.0042
26.6872
24.5548
22.5923
20.786
19.1234
17.593
16.1841
14.8872
13.6931
12.5939
11.5818
10.65
9.79208
9.00217
8.27489
7.60525
6.98869
6.42101
5.89834
5.41712
4.97408
4.56619
4.19069
3.84503
3.52683
3.23396
2.96441
2.71636
2.48812
2.27814
2.085
1.90739
1.7441
1.59404
1.45617
1.32958
1.21339
1.10683
1.00915
0.91972
0.837918
0.763195
0.695043
0.633004
0.576658
0.525624
0.479555
0.43814
0.401099
0.368178
0.339154
0.313829
0.292031
0.273614
0.258453
0.246448
0.237521
0.231606
0.228656
616.826
633.623
671.94
746.547
906.425
898.701
698.782
585.98
508.113
448.478
400.13
359.559
324.742
294.391
267.635
243.848
222.563
203.421
186.137
170.481
156.262
143.321
131.522
120.748
110.899
101.886
93.63
86.063
79.1229
72.7542
66.9074
61.5375
56.604
52.0702
47.9026
44.0709
40.5472
37.3063
34.3252
31.5825
29.059
26.7369
24.6
22.6334
20.8233
19.1572
17.6236
16.2119
14.9123
13.7159
12.6145
11.6005
10.6669
9.80735
9.01599
8.28738
7.61655
6.99891
6.43024
5.90669
5.42466
4.98089
4.57235
4.19626
3.85005
3.53137
3.23806
2.96811
2.7197
2.49114
2.28086
2.08746
1.90961
1.74611
1.59585
1.45781
1.33106
1.21473
1.10804
1.01025
0.920713
0.838817
0.76401
0.695783
0.633676
0.57727
0.526182
0.480065
0.438607
0.401528
0.368573
0.33952
0.31417
0.292351
0.273917
0.258741
0.246725
0.237789
0.231868
0.228916
617.107
633.89
672.175
746.725
906.488
898.764
698.964
586.223
508.393
448.783
400.45
359.888
325.073
294.721
267.961
244.166
222.872
203.719
186.423
170.753
156.52
143.564
131.751
120.963
111.1
102.073
93.8041
86.2245
79.2722
72.8921
67.0345
61.6545
56.7115
52.1688
47.993
44.1535
40.6228
37.3754
34.3881
31.6399
29.1113
26.7845
24.6433
22.6727
20.8591
19.1897
17.6531
16.2386
14.9366
13.7379
12.6344
11.6185
10.6833
9.82218
9.02941
8.29953
7.62754
7.00885
6.43924
5.91482
5.43202
4.98755
4.57837
4.20169
3.85496
3.53581
3.24207
2.97174
2.72298
2.4941
2.28354
2.08988
1.9118
1.74809
1.59764
1.45943
1.33252
1.21605
1.10923
1.01133
0.921691
0.839704
0.764814
0.696513
0.63434
0.577874
0.526733
0.480569
0.439068
0.401952
0.368964
0.339882
0.314508
0.292668
0.274215
0.259025
0.246998
0.238054
0.232127
0.229172
617.349
634.12
672.379
746.879
906.542
898.819
699.123
586.437
508.64
449.052
400.732
360.178
325.367
295.015
268.251
244.451
223.149
203.987
186.68
170.999
156.754
143.786
131.96
121.16
111.284
102.245
93.9649
86.3739
79.4109
73.0205
67.1531
61.7638
56.8122
52.2614
48.078
44.2315
40.6942
37.4407
34.4479
31.6945
29.1611
26.8299
24.6847
22.7104
20.8933
19.2208
17.6814
16.2644
14.9599
13.7591
12.6537
11.636
10.6991
9.83652
9.04241
8.3113
7.6382
7.0185
6.44798
5.92273
5.43918
4.99402
4.58422
4.20699
3.85975
3.54014
3.24599
2.97528
2.72618
2.49699
2.28616
2.09224
1.91393
1.75002
1.59938
1.46101
1.33395
1.21735
1.1104
1.01239
0.922651
0.840574
0.765603
0.69723
0.634992
0.578468
0.527275
0.481064
0.439523
0.402369
0.369349
0.340239
0.31484
0.292979
0.274509
0.259305
0.247266
0.238314
0.232382
0.229424
617.56
634.32
672.556
747.013
906.59
898.868
699.262
586.624
508.857
449.288
400.982
360.436
325.628
295.277
268.511
244.706
223.398
204.228
186.912
171.222
156.967
143.988
132.151
121.34
111.454
102.404
94.113
86.512
79.5393
73.1396
67.2634
61.8658
56.9063
52.3481
48.1578
44.3048
40.7615
37.5024
34.5043
31.7461
29.2083
26.873
24.724
22.7462
20.926
19.2506
17.7085
16.289
14.9823
13.7795
12.6721
11.6528
10.7143
9.85033
9.05493
8.32265
7.64849
7.02783
6.45642
5.93038
5.4461
5.00029
4.5899
4.21212
3.8644
3.54435
3.24979
2.97872
2.72929
2.4998
2.2887
2.09454
1.91601
1.7519
1.60109
1.46255
1.33534
1.21861
1.11154
1.01342
0.923586
0.841422
0.766373
0.69793
0.635629
0.579048
0.527805
0.481549
0.439966
0.402777
0.369725
0.340587
0.315164
0.293283
0.274796
0.259578
0.247528
0.238568
0.232631
0.22967
617.742
634.494
672.71
747.13
906.631
898.91
699.385
586.789
509.049
449.498
401.203
360.664
325.86
295.51
268.742
244.934
223.621
204.444
187.122
171.423
157.159
144.171
132.325
121.504
111.608
102.549
94.2492
86.6392
79.6579
73.2499
67.3657
61.9606
56.994
52.429
48.2324
44.3735
40.8246
37.5603
34.5575
31.7948
29.2529
26.9138
24.7612
22.7802
20.957
19.2789
17.7343
16.3125
15.0037
13.7989
12.6898
11.6688
10.7289
9.86357
9.06695
8.33356
7.65838
7.0368
6.46456
5.93775
5.45278
5.00634
4.59537
4.21708
3.86889
3.54841
3.25347
2.98205
2.7323
2.50253
2.29116
2.09677
1.91803
1.75372
1.60274
1.46404
1.33669
1.21983
1.11265
1.01443
0.924496
0.842247
0.767121
0.698609
0.636247
0.579612
0.528319
0.482019
0.440397
0.403173
0.370091
0.340926
0.31548
0.293578
0.275075
0.259843
0.247783
0.238815
0.232873
0.22991
617.901
634.645
672.843
747.231
906.668
898.947
699.492
586.934
509.217
449.682
401.398
360.866
326.066
295.717
268.948
245.137
223.82
204.639
187.31
171.604
157.333
144.337
132.483
121.654
111.75
102.682
94.3741
86.7562
79.7671
73.3517
67.4604
62.0485
57.0754
52.5043
48.3019
44.4376
40.8836
37.6146
34.6074
31.8406
29.2948
26.9522
24.7964
22.8124
20.9864
19.3057
17.7587
16.3348
15.024
13.8174
12.7066
11.6841
10.7428
9.87622
9.07844
8.344
7.66786
7.0454
6.47236
5.94482
5.45919
5.01215
4.60064
4.22185
3.87321
3.55233
3.25701
2.98525
2.7352
2.50516
2.29354
2.09892
1.91998
1.75549
1.60433
1.46549
1.338
1.22101
1.11372
1.0154
0.925377
0.843046
0.767846
0.699268
0.636847
0.580158
0.528817
0.482474
0.440815
0.403557
0.370445
0.341254
0.315785
0.293865
0.275345
0.2601
0.24803
0.239054
0.233107
0.230141
618.039
634.776
672.96
747.32
906.699
898.98
699.587
587.062
509.366
449.845
401.57
361.044
326.248
295.901
269.132
245.319
223.999
204.813
187.479
171.767
157.49
144.487
132.626
121.79
111.878
102.804
94.4883
86.8633
79.8674
73.4453
67.5477
62.1297
57.1507
52.5742
48.3665
44.4973
40.9387
37.6654
34.654
31.8835
29.3342
26.9883
24.8295
22.8427
21.0141
19.331
17.7818
16.3559
15.0432
13.8349
12.7226
11.6987
10.756
9.88826
9.08939
8.35394
7.67689
7.0536
6.4798
5.95158
5.46532
5.01771
4.60568
4.22642
3.87735
3.55608
3.26041
2.98833
2.73799
2.50768
2.29583
2.10099
1.92185
1.75718
1.60587
1.46688
1.33926
1.22215
1.11476
1.01634
0.926227
0.843817
0.768546
0.699904
0.637426
0.580685
0.529298
0.482915
0.441219
0.403928
0.370788
0.341571
0.31608
0.294141
0.275606
0.260348
0.248268
0.239285
0.233333
0.230365
618.159
634.89
673.061
747.397
906.727
899.008
699.67
587.174
509.497
449.988
401.723
361.203
326.41
296.064
269.295
245.481
224.158
204.969
187.631
171.914
157.631
144.623
132.755
121.913
111.995
102.914
94.5924
86.9612
79.9592
73.5313
67.6279
62.2044
57.2203
52.6387
48.4263
44.5526
40.9898
37.7125
34.6975
31.9235
29.371
27.0221
24.8605
22.8711
21.0401
19.3548
17.8036
16.3757
15.0614
13.8515
12.7377
11.7124
10.7686
9.89966
9.09976
8.36338
7.68547
7.06139
6.48688
5.95801
5.47116
5.023
4.61048
4.23078
3.8813
3.55966
3.26365
2.99127
2.74065
2.51009
2.29801
2.10297
1.92364
1.75881
1.60734
1.46821
1.34047
1.22325
1.11575
1.01724
0.927042
0.844557
0.769218
0.700515
0.637982
0.581192
0.529761
0.483338
0.441607
0.404285
0.371117
0.341877
0.316365
0.294407
0.275857
0.260587
0.248497
0.239507
0.23355
0.23058
618.264
634.99
673.15
747.464
906.751
899.033
699.742
587.272
509.612
450.115
401.857
361.343
326.553
296.209
269.44
245.625
224.3
205.108
187.766
172.046
157.758
144.745
132.872
122.024
112.101
103.014
94.6871
87.0505
80.043
73.6099
67.7014
62.273
57.2842
52.6981
48.4814
44.6037
41.0371
37.7562
34.7378
31.9606
29.4052
27.0535
24.8894
22.8976
21.0644
19.3771
17.824
16.3944
15.0784
13.867
12.7519
11.7254
10.7804
9.91041
9.10954
8.37228
7.69357
7.06876
6.49357
5.96409
5.47668
5.02801
4.61503
4.23491
3.88504
3.56305
3.26673
2.99406
2.74318
2.51238
2.30009
2.10486
1.92535
1.76035
1.60874
1.46948
1.34162
1.22429
1.11669
1.01809
0.92782
0.845263
0.76986
0.701099
0.638512
0.581676
0.530202
0.483742
0.441978
0.404627
0.371433
0.342169
0.316637
0.294662
0.276097
0.260816
0.248716
0.23972
0.233759
0.230787
618.355
635.077
673.227