/*--------------------------------*- C++ -*----------------------------------*\
| =========                 |                                                 |
| \\      /  F ield         | OpenFOAM: The Open Source CFD Toolbox           |
|  \\    /   O peration     | Version:  2.4.0                                 |
|   \\  /    A nd           | Web:      www.OpenFOAM.org                      |
|    \\/     M anipulation  |                                                 |
\*---------------------------------------------------------------------------*/
FoamFile
{
    version     2.0;
    format      ascii;
    class       volScalarField;
    location    "0.005";
    object      phi;
}
// * * * * * * * * * * * * * * * * * * * * * * * * * * * * * * * * * * * * * //

dimensions      [1 2 -3 0 0 -1 0];

internalField   nonuniform List<scalar> 
9000
(
0.00890524
0.0089268
0.0089681
0.00902548
0.00909341
0.00916442
0.00922925
0.00927703
0.00929577
0.00927304
0.00911956
0.00914722
0.00920064
0.00927595
0.00936716
0.00946607
0.0095622
0.00964292
0.00969388
0.00969978
0.00955429
0.00959511
0.00967476
0.00978904
0.00993124
0.0100918
0.0102578
0.0104129
0.0105376
0.0106101
0.0102211
0.0102842
0.0104083
0.0105891
0.0108195
0.011088
0.0113785
0.0116687
0.0119302
0.0121295
0.0111365
0.0112339
0.0114272
0.0117129
0.0120841
0.0125285
0.0130264
0.0135473
0.0140492
0.0144778
0.0123196
0.0124677
0.0127642
0.0132082
0.0137961
0.0145177
0.0153514
0.0162582
0.0171758
0.0180159
0.01379
0.0140106
0.0144557
0.0151315
0.0160438
0.0171918
0.01856
0.0201049
0.0217397
0.0233206
0.0155631
0.0158837
0.0165361
0.0175409
0.0189249
0.0207133
0.022916
0.0255043
0.0283742
0.0313023
0.0176456
0.0180992
0.01903
0.0204847
0.0225308
0.0252493
0.0287187
0.0329793
0.0379626
0.0433704
0.02003
0.0206527
0.0219413
0.0239841
0.0269172
0.0309252
0.0362327
0.0430714
0.0515867
0.0615981
0.0236501
0.0236721
0.0237122
0.0237631
0.0238135
0.0238493
0.0238535
0.0238071
0.0236901
0.023483
0.0241054
0.0241353
0.0241911
0.0242647
0.0243439
0.024413
0.0244531
0.0244426
0.0243588
0.0241788
0.0250218
0.0250685
0.0251574
0.0252791
0.0254194
0.0255596
0.0256769
0.0257444
0.0257333
0.0256136
0.0264103
0.0264844
0.0266273
0.0268277
0.0270688
0.0273274
0.0275743
0.0277745
0.0278889
0.0278756
0.028285
0.0283996
0.0286224
0.0289405
0.0293332
0.0297718
0.0302186
0.0306268
0.0309417
0.0311032
0.0306601
0.0308315
0.0311671
0.0316521
0.0322623
0.0329625
0.0337046
0.0344261
0.0350503
0.0354891
0.0335464
0.0337944
0.0342833
0.034997
0.0359087
0.0369772
0.0381429
0.0393238
0.0404134
0.0412829
0.0369458
0.0372941
0.0379843
0.0390014
0.0403183
0.0418901
0.0436467
0.0454846
0.0472595
0.0487846
0.0408467
0.0413218
0.0422678
0.0436739
0.0455172
0.0477543
0.0503096
0.0530598
0.0558172
0.0583176
0.0452191
0.0458486
0.0471079
0.0489943
0.0514956
0.0545784
0.0581713
0.0621396
0.0662547
0.0701586
0.0323212
0.0323137
0.0322953
0.0322595
0.0321966
0.0320946
0.0319395
0.0317161
0.0314091
0.0310041
0.0327968
0.0327941
0.032785
0.0327624
0.0327159
0.0326323
0.0324961
0.0322907
0.031999
0.0316046
0.0337496
0.0337567
0.0337669
0.0337719
0.0337596
0.0337144
0.0336183
0.0334512
0.0331921
0.0328211
0.0351816
0.0352046
0.0352455
0.0352945
0.035337
0.0353541
0.0353231
0.0352189
0.0350145
0.0346837
0.0370947
0.0371402
0.0372254
0.037338
0.0374602
0.0375683
0.0376337
0.0376237
0.037503
0.0372359
0.0394878
0.0395641
0.0397094
0.039909
0.0401409
0.0403755
0.0405762
0.0407006
0.0407017
0.040531
0.0423551
0.0424715
0.0426957
0.0430099
0.0433871
0.0437909
0.0441751
0.0444846
0.0446572
0.0446267
0.0456832
0.0458503
0.0461743
0.0466344
0.0471982
0.0478214
0.0484464
0.0490028
0.0494092
0.0495763
0.0494482
0.0496773
0.0501239
0.0507639
0.0515596
0.052458
0.053389
0.0542644
0.0549789
0.055414
0.0536141
0.0539166
0.0545087
0.0553633
0.0564376
0.0576696
0.0589758
0.060248
0.0613534
0.0621372
0.0352052
0.0351709
0.0351
0.0349886
0.0348309
0.0346195
0.0343463
0.0340026
0.0335802
0.0330714
0.0355956
0.0355632
0.0354961
0.0353899
0.0352384
0.0350337
0.0347669
0.0344286
0.0340096
0.0335016
0.0363752
0.0363468
0.0362874
0.0361919
0.0360533
0.0358625
0.0356091
0.0352821
0.0348707
0.0343649
0.037541
0.0375189
0.0374715
0.0373931
0.0372749
0.0371062
0.0368743
0.0365659
0.0361675
0.0356662
0.0390879
0.0390746
0.0390444
0.03899
0.038901
0.038764
0.0385636
0.0382827
0.0379043
0.0374119
0.0410075
0.0410061
0.0409987
0.0409766
0.0409268
0.040833
0.0406757
0.0404336
0.0400845
0.0396071
0.0432874
0.043301
0.0433229
0.0433423
0.0433434
0.0433059
0.0432057
0.0430158
0.0427078
0.0422542
0.0459097
0.045942
0.0460001
0.0460712
0.0461359
0.0461696
0.0461423
0.0460203
0.0457677
0.0453487
0.0488503
0.0489051
0.0490068
0.0491401
0.0492821
0.0494027
0.0494654
0.0494286
0.0492475
0.0488764
0.0520783
0.0521592
0.0523118
0.052518
0.0527506
0.052974
0.0531443
0.0532107
0.0531179
0.0528091
0.0338578
0.0338109
0.0337162
0.0335716
0.0333744
0.0331211
0.0328081
0.0324315
0.031988
0.0314748
0.0341433
0.034097
0.0340032
0.0338599
0.033664
0.033412
0.0330997
0.0327232
0.0322786
0.0317628
0.0347124
0.0346672
0.0345754
0.0344347
0.0342417
0.0339922
0.0336817
0.0333053
0.0328586
0.0323379
0.035561
0.0355174
0.0354287
0.0352922
0.0351038
0.0348586
0.034551
0.0341752
0.0337259
0.0331983
0.0366825
0.0366413
0.0365571
0.0364265
0.0362447
0.0360057
0.0357027
0.0353286
0.0348766
0.0343404
0.0380678
0.0380297
0.0379515
0.0378289
0.0376562
0.0374259
0.0371297
0.0367587
0.0363043
0.0357587
0.0397048
0.0396708
0.0396001
0.0394879
0.039327
0.0391083
0.0388216
0.0384558
0.0380001
0.0374444
0.041578
0.0415489
0.0414877
0.0413884
0.0412423
0.0410384
0.0407643
0.0404063
0.0399509
0.0393854
0.0436684
0.0436452
0.0435953
0.0435115
0.0433834
0.0431979
0.0429397
0.0425925
0.0421394
0.0415648
0.0459532
0.0459368
0.0459001
0.0458343
0.0457274
0.0455637
0.045325
0.0449916
0.0445431
0.0439603
0.0298148
0.0297678
0.0296735
0.0295311
0.0293395
0.0290977
0.0288044
0.0284584
0.0280589
0.0276056
0.0300108
0.0299638
0.0298695
0.0297269
0.0295351
0.0292927
0.0289983
0.0286509
0.0282494
0.0277932
0.0304012
0.0303542
0.0302597
0.0301169
0.0299245
0.029681
0.0293848
0.0290345
0.0286288
0.0281671
0.0309823
0.0309353
0.0308408
0.0306977
0.0305045
0.0302594
0.0299605
0.029606
0.0291943
0.0287244
0.0317488
0.0317019
0.0316073
0.0314639
0.0312698
0.0310228
0.0307206
0.0303607
0.0299413
0.0294607
0.0326933
0.0326465
0.0325521
0.0324085
0.0322134
0.0319643
0.0316582
0.0312921
0.0308633
0.0303698
0.0338065
0.0337599
0.0336657
0.0335221
0.0333263
0.033075
0.0327647
0.0323915
0.031952
0.0314436
0.035077
0.0350307
0.034937
0.0347937
0.0345973
0.0343439
0.0340291
0.0336483
0.0331971
0.0326719
0.0364913
0.0364455
0.0363526
0.0362097
0.0360131
0.0357578
0.0354385
0.0350496
0.0345857
0.0340424
0.0380339
0.0379889
0.0378969
0.037755
0.0375583
0.0373014
0.0369776
0.0365804
0.0361032
0.0355404
0.0241929
0.0241531
0.0240733
0.0239534
0.0237932
0.0235926
0.0233514
0.0230696
0.0227476
0.0223857
0.0243216
0.0242816
0.0242015
0.0240812
0.0239204
0.0237188
0.0234765
0.0231933
0.0228694
0.0225054
0.0245776
0.0245373
0.0244567
0.0243354
0.0241734
0.0239701
0.0237255
0.0234394
0.023112
0.0227436
0.0249584
0.0249177
0.0248363
0.0247137
0.0245498
0.024344
0.024096
0.0238057
0.023473
0.0230982
0.0254602
0.0254191
0.0253365
0.0252123
0.0250459
0.0248368
0.0245844
0.0242885
0.0239489
0.0235658
0.0260779
0.0260361
0.0259523
0.025826
0.0256567
0.0254435
0.0251859
0.0248832
0.0245351
0.0241417
0.0268051
0.0267626
0.0266773
0.0265487
0.0263759
0.026158
0.0258942
0.0255836
0.0252257
0.0248202
0.0276341
0.0275908
0.0275039
0.0273726
0.027196
0.0269729
0.0267022
0.0263827
0.0260136
0.0255944
0.0285562
0.028512
0.0284233
0.0282891
0.0281084
0.0278795
0.0276012
0.0272718
0.0268904
0.0264562
0.0295613
0.0295162
0.0294256
0.0292883
0.0291031
0.0288681
0.0285815
0.0282416
0.0278468
0.0273961
0.0177011
0.0176717
0.0176129
0.0175247
0.0174073
0.0172608
0.0170854
0.0168816
0.0166497
0.0163906
0.0177807
0.0177512
0.0176921
0.0176035
0.0174856
0.0173384
0.0171622
0.0169573
0.0167242
0.0164636
0.0179392
0.0179094
0.0178498
0.0177604
0.0176414
0.0174928
0.0173149
0.0171079
0.0168724
0.016609
0.0181747
0.0181446
0.0180842
0.0179937
0.0178731
0.0177225
0.0175421
0.017332
0.0170929
0.0168253
0.0184851
0.0184544
0.0183931
0.0183011
0.0181784
0.0180251
0.0178413
0.0176273
0.0173834
0.0171102
0.0188669
0.0188356
0.0187731
0.0186793
0.018554
0.0183975
0.0182096
0.0179906
0.0177409
0.0174609
0.0193162
0.0192843
0.0192203
0.0191243
0.0189961
0.0188357
0.0186431
0.0184183
0.0181617
0.0178738
0.0198284
0.0197956
0.0197301
0.0196316
0.0195001
0.0193353
0.0191372
0.0189059
0.0186415
0.0183445
0.0203978
0.0203643
0.0202969
0.0201957
0.0200605
0.0198909
0.0196868
0.0194482
0.0191751
0.0188681
0.0210186
0.0209841
0.0209149
0.0208107
0.0206714
0.0204966
0.020286
0.0200395
0.0197571
0.0194391
0.0107584
0.0107405
0.0107049
0.0106516
0.0105807
0.0104924
0.010387
0.0102647
0.010126
0.00997129
0.0108015
0.0107836
0.0107478
0.0106942
0.010623
0.0105343
0.0104284
0.0103055
0.0101661
0.0100106
0.0108872
0.0108692
0.0108331
0.0107791
0.0107072
0.0106177
0.0105107
0.0103867
0.0102459
0.0100889
0.0110148
0.0109965
0.0109599
0.0109052
0.0108324
0.0107416
0.0106332
0.0105074
0.0103646
0.0102053
0.0111827
0.0111641
0.011127
0.0110713
0.0109972
0.0109049
0.0107946
0.0106664
0.010521
0.0103586
0.0113894
0.0113704
0.0113325
0.0112757
0.0112001
0.0111058
0.0109931
0.0108621
0.0107133
0.0105472
0.0116326
0.0116132
0.0115744
0.0115163
0.0114388
0.0113423
0.0112267
0.0110924
0.0109398
0.0107692
0.0119098
0.0118899
0.0118501
0.0117904
0.0117109
0.0116117
0.011493
0.0113549
0.0111979
0.0110224
0.0122181
0.0121977
0.0121567
0.0120954
0.0120136
0.0119115
0.0117892
0.0116469
0.011485
0.0113039
0.0125543
0.0125332
0.0124911
0.0124278
0.0123436
0.0122383
0.0121122
0.0119653
0.0117981
0.0116109
0.00360622
0.00360027
0.00358838
0.0035706
0.00354696
0.00351755
0.00348246
0.0034418
0.00339571
0.00334439
0.00361984
0.00361386
0.00360192
0.00358406
0.00356032
0.00353077
0.00349552
0.00345466
0.00340836
0.00335679
0.00364694
0.00364091
0.00362887
0.00361085
0.0035869
0.00355708
0.0035215
0.00348027
0.00343354
0.00338147
0.00368724
0.00368113
0.00366893
0.00365068
0.00362642
0.00359621
0.00356015
0.00351836
0.00347097
0.00341817
0.00374032
0.00373411
0.00372171
0.00370315
0.00367847
0.00364774
0.00361105
0.00356852
0.00352028
0.00346651
0.00380562
0.00379929
0.00378664
0.0037677
0.00374251
0.00371115
0.00367368
0.00363024
0.00358095
0.00352599
0.00388247
0.003876
0.00386305
0.00384367
0.00381789
0.00378577
0.0037474
0.00370288
0.00365236
0.003596
0.00397008
0.00396343
0.00395015
0.00393026
0.00390381
0.00387083
0.00383143
0.00378569
0.00373376
0.00367582
0.00406751
0.00406069
0.00404704
0.00402659
0.00399938
0.00396546
0.0039249
0.00387781
0.00382432
0.00376461
0.00417376
0.00416676
0.00415271
0.00413165
0.00410361
0.00406865
0.00402684
0.00397828
0.0039231
0.00386148
0.0438925
0.0463523
0.0515589
0.0601313
0.0731174
0.0921615
0.119771
0.159731
0.217742
0.302387
0.0495132
0.0520889
0.0575321
0.0664701
0.0799631
0.0996694
0.128109
0.169073
0.228246
0.314148
0.0502373
0.0528149
0.0582614
0.067204
0.0807029
0.100416
0.128863
0.169833
0.229012
0.314918
0.0503581
0.0529352
0.0583811
0.0673231
0.0808211
0.100533
0.128979
0.169948
0.229125
0.315028
0.0503828
0.0529603
0.0584065
0.0673487
0.0808469
0.100559
0.129005
0.169975
0.229152
0.315056
0.0503843
0.0529613
0.0584071
0.067349
0.0808469
0.100559
0.129004
0.169973
0.22915
0.315053
0.0503736
0.0529511
0.0583973
0.0673395
0.0808378
0.10055
0.128996
0.169966
0.229143
0.315047
0.0503064
0.0528836
0.0583296
0.0672718
0.0807701
0.100482
0.128929
0.169898
0.229076
0.31498
0.0498561
0.0524321
0.0578755
0.0668138
0.080307
0.100013
0.128453
0.169417
0.228589
0.314491
0.0454794
0.0479463
0.0531669
0.0617603
0.0747745
0.093854
0.121507
0.16152
0.219599
0.304331
0.0882102
0.0904611
0.0950235
0.102011
0.111573
0.123856
0.138946
0.156743
0.176772
0.19783
0.101442
0.103821
0.108635
0.115994
0.126037
0.138895
0.154627
0.1731
0.193785
0.215415
0.103394
0.105773
0.110588
0.117949
0.127992
0.140849
0.156579
0.175046
0.19572
0.217332
0.103744
0.106123
0.110939
0.118299
0.128341
0.141197
0.156924
0.175389
0.196061
0.21767
0.103807
0.106185
0.110999
0.118358
0.128399
0.141253
0.15698
0.175443
0.196112
0.217719
0.10382
0.106199
0.111015
0.118374
0.128416
0.141272
0.156999
0.175463
0.196134
0.217743
0.103781
0.106159
0.110974
0.118332
0.128373
0.141228
0.156955
0.175418
0.196088
0.217695
0.1036
0.105979
0.110795
0.118155
0.128198
0.141055
0.156784
0.17525
0.195923
0.217534
0.102423
0.104802
0.109616
0.116975
0.127016
0.139873
0.155604
0.174075
0.194757
0.216382
0.0928093
0.0950852
0.0996976
0.106761
0.116426
0.128844
0.144101
0.162104
0.182384
0.20375
0.0941353
0.0951921
0.0972827
0.100356
0.104325
0.109049
0.114321
0.11984
0.125194
0.129848
0.110173
0.111292
0.113504
0.116749
0.120927
0.125883
0.131386
0.137111
0.142614
0.147328
0.112933
0.114051
0.11626
0.1195
0.12367
0.128615
0.134102
0.139805
0.145282
0.149962
0.113442
0.114558
0.116764
0.120001
0.124167
0.129107
0.134589
0.140286
0.145755
0.150427
0.113559
0.114677
0.116884
0.120121
0.124288
0.129229
0.134712
0.140409
0.145879
0.150552
0.113558
0.114674
0.11688
0.120116
0.124282
0.129221
0.134702
0.140398
0.145865
0.150536
0.113519
0.114637
0.116844
0.120081
0.124248
0.129189
0.134672
0.14037
0.14584
0.150513
0.113235
0.114351
0.116558
0.119796
0.123964
0.128905
0.134389
0.140089
0.14556
0.150235
0.11168
0.112799
0.11501
0.118255
0.122432
0.127385
0.132885
0.138604
0.1441
0.148805
0.101116
0.102204
0.104357
0.107525
0.111619
0.116502
0.121964
0.127708
0.133325
0.138285
0.0832717
0.0836163
0.084284
0.0852307
0.0863891
0.0876671
0.0889483
0.0900919
0.090937
0.0913095
0.0989321
0.0992912
0.0999846
0.100963
0.102152
0.10345
0.10473
0.105836
0.106596
0.106821
0.102024
0.102378
0.103063
0.104029
0.105201
0.106478
0.10773
0.108803
0.109523
0.109702
0.102665
0.10302
0.103704
0.104669
0.105838
0.107112
0.10836
0.109429
0.110144
0.110317
0.102778
0.103131
0.103814
0.104776
0.105944
0.107215
0.108461
0.109527
0.110239
0.110408
0.102811
0.103166
0.10385
0.104814
0.105983
0.107255
0.108502
0.10957
0.110284
0.110456
0.102731
0.103084
0.103766
0.104729
0.105897
0.107169
0.108415
0.109481
0.110194
0.110363
0.102422
0.102778
0.103462
0.104428
0.105599
0.106874
0.108124
0.109195
0.109912
0.110088
0.100761
0.101118
0.101808
0.102782
0.103966
0.105256
0.106525
0.107619
0.108362
0.108567
0.0917179
0.0920901
0.0928116
0.0938376
0.0950991
0.0965024
0.0979283
0.0992335
0.100255
0.10082
0.0679578
0.0680112
0.0681073
0.0682252
0.0683342
0.0683948
0.0683599
0.0681767
0.0677897
0.0671442
0.081632
0.0816762
0.0817534
0.0818403
0.0819029
0.081897
0.0817707
0.0814658
0.0809215
0.0800782
0.0847291
0.0847699
0.0848388
0.0849125
0.0849569
0.0849279
0.0847733
0.084435
0.0838519
0.0829644
0.0853751
0.0854132
0.085479
0.0855488
0.0855885
0.0855537
0.0853923
0.085046
0.0844538
0.0835559
0.0855386
0.0855787
0.0856455
0.0857161
0.0857562
0.0857218
0.0855609
0.0852151
0.0846237
0.0837268
0.0855318
0.0855696
0.0856349
0.0857042
0.0857431
0.0857074
0.0855448
0.0851971
0.0846034
0.0837038
0.0854858
0.0855258
0.0855927
0.0856633
0.0857035
0.0856694
0.0855086
0.0851631
0.0845719
0.0836753
0.0851329
0.0851716
0.0852381
0.0853091
0.0853502
0.0853173
0.0851579
0.084814
0.0842245
0.0833296
0.0836125
0.0836557
0.0837295
0.0838108
0.0838653
0.0838488
0.083709
0.0833873
0.0828227
0.0819549
0.076867
0.0769387
0.0770706
0.0772403
0.0774147
0.0775507
0.077597
0.0774959
0.0771866
0.07661
0.052868
0.0528294
0.0527483
0.0526167
0.0524231
0.0521529
0.0517896
0.0513155
0.0507129
0.0499655
0.0639905
0.0639376
0.0638266
0.0636486
0.0633909
0.0630373
0.0625695
0.0619679
0.061213
0.0602871
0.0667713
0.0667127
0.0665919
0.0663998
0.0661234
0.0657465
0.0652506
0.0646161
0.0638236
0.0628551
0.0674277
0.0673699
0.0672484
0.0670544
0.0667752
0.0663948
0.0658946
0.0652552
0.0644571
0.0634827
0.0675442
0.0674842
0.0673612
0.0671658
0.066885
0.0665028
0.0660004
0.0653585
0.0645574
0.0635795
0.0675845
0.0675266
0.0674048
0.0672103
0.0669304
0.0665491
0.0660479
0.0654073
0.064608
0.0636321
0.0674952
0.0674354
0.0673124
0.0671172
0.0668367
0.0664547
0.0659527
0.0653111
0.0645105
0.0635331
0.0672016
0.0671439
0.0670227
0.0668295
0.0665512
0.0661719
0.0656731
0.0650352
0.0642389
0.0632664
0.0658836
0.0658272
0.0657105
0.0655243
0.0652555
0.0648876
0.0644021
0.063779
0.0629985
0.0620425
0.0613437
0.0613154
0.0612537
0.0611488
0.0609865
0.0607487
0.0604143
0.0599598
0.0593607
0.0585932
0.0392257
0.0391723
0.0390638
0.0388977
0.0386701
0.0383766
0.038012
0.0375711
0.037049
0.0364417
0.0476698
0.0476017
0.0474647
0.0472556
0.0469702
0.0466033
0.0461493
0.0456023
0.0449573
0.0442097
0.0500048
0.049934
0.04979
0.0495699
0.0492697
0.0488843
0.0484081
0.0478355
0.0471612
0.046381
0.0505392
0.0504662
0.0503198
0.0500969
0.0497932
0.0494034
0.0489219
0.0483431
0.0476618
0.0468736
0.0506861
0.0506146
0.0504689
0.0502462
0.0499424
0.0495525
0.0490711
0.0484924
0.0478112
0.0470233
0.0506761
0.0506029
0.0504562
0.0502328
0.0499283
0.0495378
0.0490553
0.0484754
0.0477928
0.0470031
0.0506412
0.0505696
0.0504239
0.0502012
0.0498975
0.0495078
0.0490265
0.048448
0.047767
0.0469794
0.0503538
0.0502812
0.0501353
0.049913
0.04961
0.0492212
0.0487409
0.0481634
0.0474835
0.0466969
0.0493451
0.0492752
0.0491333
0.0489164
0.0486202
0.0482395
0.0477686
0.0472013
0.0465322
0.0457568
0.0464989
0.0464484
0.0463455
0.046186
0.0459636
0.0456707
0.0452978
0.0448345
0.0442692
0.0435896
0.0269869
0.0269432
0.0268555
0.0267231
0.026545
0.02632
0.0260468
0.0257243
0.0253517
0.0249284
0.0328794
0.0328256
0.032717
0.0325531
0.0323327
0.0320546
0.0317174
0.0313201
0.0308616
0.0303418
0.0345947
0.0345374
0.0344229
0.0342503
0.0340186
0.0337263
0.0333721
0.032955
0.0324741
0.0319292
0.0350383
0.0349813
0.0348661
0.034692
0.034458
0.0341631
0.0338058
0.0333853
0.0329005
0.0323514
0.0351158
0.0350576
0.0349417
0.034767
0.0345324
0.0342367
0.0338784
0.0334564
0.0329701
0.032419
0.0351479
0.0350908
0.0349753
0.0348008
0.0345664
0.0342708
0.0339129
0.0334915
0.0330058
0.0324556
0.0350827
0.0350246
0.0349088
0.0347342
0.0344997
0.0342041
0.033846
0.0334242
0.0329381
0.0323874
0.0348964
0.0348394
0.0347243
0.0345504
0.0343169
0.0340224
0.0336657
0.0332458
0.0327617
0.0322133
0.0341552
0.0340986
0.0339851
0.033814
0.0335839
0.0332935
0.0329412
0.0325258
0.0320462
0.031502
0.0325154
0.0324707
0.03238
0.0322417
0.0320529
0.0318099
0.0315083
0.0311429
0.0307074
0.0301946
0.0157893
0.0157625
0.0157086
0.0156277
0.0155196
0.015384
0.0152208
0.0150301
0.0148119
0.0145665
0.0192456
0.0192123
0.0191458
0.019046
0.0189125
0.0187453
0.0185442
0.0183093
0.0180407
0.0177389
0.0203161
0.0202813
0.0202114
0.0201063
0.019966
0.0197903
0.0195791
0.0193326
0.0190508
0.0187344
0.0205724
0.020537
0.0204664
0.0203604
0.0202187
0.0200411
0.0198278
0.0195785
0.0192938
0.0189739
0.0206488
0.0206136
0.0205428
0.0204364
0.0202943
0.0201164
0.0199027
0.0196532
0.0193681
0.0190481
0.0206407
0.0206052
0.0205344
0.0204282
0.0202862
0.0201083
0.0198944
0.0196447
0.0193593
0.0190387
0.0206266
0.0205914
0.0205206
0.0204143
0.0202722
0.0200944
0.0198808
0.0196314
0.0193464
0.0190264
0.0204874
0.0204521
0.0203816
0.0202757
0.0201342
0.019957
0.0197439
0.019495
0.0192107
0.0188913
0.0200615
0.0200267
0.019957
0.0198523
0.0197123
0.0195368
0.0193256
0.0190788
0.0187964
0.0184788
0.0192112
0.0191814
0.0191213
0.0190301
0.0189064
0.0187485
0.0185542
0.0183208
0.0180451
0.0177232
0.00519594
0.00518698
0.00516904
0.00514213
0.00510622
0.00506132
0.00500747
0.00494473
0.00487321
0.00479308
0.00633873
0.00632762
0.00630543
0.00627218
0.00622787
0.00617252
0.0061062
0.00602898
0.00594101
0.00584252
0.00669298
0.0066814
0.0066582
0.00662334
0.00657682
0.00651867
0.00644896
0.00636778
0.00627532
0.0061718
0.00678951
0.00677766
0.00675401
0.00671861
0.00667148
0.00661265
0.0065422
0.00646021
0.00636686
0.00626238
0.00680494
0.00679324
0.00676977
0.00673451
0.00668742
0.00662856
0.00655798
0.00647579
0.00638218
0.00627738
0.00681353
0.00680164
0.00677792
0.00674242
0.00669517
0.00663621
0.00656559
0.00648342
0.00638986
0.00628515
0.00679788
0.00678618
0.00676272
0.00672745
0.00668038
0.00662154
0.00655098
0.00646883
0.00637526
0.00627052
0.00675983
0.006748
0.0067244
0.00668906
0.006642
0.00658325
0.00651288
0.00643099
0.00633774
0.00623337
0.00661159
0.00660001
0.00657679
0.00654191
0.00649535
0.00643711
0.00636722
0.00628576
0.00619285
0.0060887
0.0063525
0.00634195
0.0063207
0.00628846
0.00624477
0.00618904
0.00612054
0.00603837
0.0059415
0.00582869
0.0226658
0.0232574
0.0244722
0.0263738
0.0290537
0.0326204
0.037171
0.0427222
0.0490506
0.0553265
0.0203904
0.0208119
0.0216673
0.0229787
0.02477
0.02705
0.0297795
0.0328092
0.0357686
0.0378893
0.018405
0.0186953
0.0192768
0.0201483
0.0212976
0.0226877
0.0242296
0.0257403
0.0268773
0.0270491
0.0167137
0.016907
0.0172891
0.0178472
0.0185546
0.0193591
0.020165
0.020806
0.0210062
0.0203273
0.0153071
0.0154311
0.0156727
0.0160156
0.0164299
0.0168649
0.0172377
0.0174174
0.0172056
0.016312
0.0141687
0.0142445
0.0143895
0.0145877
0.0148123
0.0150207
0.0151493
0.0151059
0.0147636
0.0139573
0.0132809
0.0133237
0.0134032
0.0135054
0.0136079
0.0136776
0.0136689
0.0135218
0.0131635
0.0125155
0.0126284
0.0126492
0.0126854
0.0127249
0.0127492
0.0127327
0.0126423
0.0124391
0.0120826
0.0115422
0.0121996
0.0122069
0.0122164
0.0122175
0.0121942
0.012125
0.0119831
0.0117382
0.011361
0.010834
0.0119871
0.0119879
0.0119848
0.0119678
0.0119219
0.0118269
0.0116576
0.0113833
0.0109683
0.0103692
0.0537942
0.0544902
0.0558808
0.0579637
0.0607248
0.0641259
0.0680795
0.0724037
0.0767272
0.0802711
0.0498028
0.0503489
0.0514368
0.0530584
0.0551966
0.0578201
0.0608803
0.0643159
0.0680906
0.0723487
0.0462089
0.0466306
0.0474691
0.0487148
0.0503524
0.0523617
0.0547258
0.0574528
0.060637
0.0646132
0.0430359
0.0433552
0.0439887
0.0449255
0.0461492
0.0476398
0.0493772
0.0513498
0.0535652
0.0560494
0.0402954
0.0405302
0.0409948
0.0416762
0.042555
0.0436048
0.0447907
0.0460639
0.0473443
0.0484668
0.0379933
0.0381588
0.0384844
0.0389549
0.0395481
0.0402323
0.0409634
0.0416772
0.0422735
0.0425802
0.0361357
0.036245
0.0364574
0.036756
0.0371158
0.0375021
0.0378684
0.0381535
0.0382781
0.0381428
0.0347306
0.0347965
0.0349208
0.0350849
0.035261
0.035411
0.0354853
0.0354245
0.0351665
0.0346709
0.033787
0.0338229
0.0338859
0.0339558
0.0340013
0.0339786
0.0338293
0.0334792
0.0328446
0.0318617
0.0333131
0.033334
0.0333657
0.033387
0.0333639
0.0332472
0.0329665
0.0324213
0.0314616
0.0298467
0.0676745
0.0681383
0.0690523
0.070392
0.0721109
0.0741274
0.076294
0.0783286
0.0796484
0.0789522
0.0641935
0.0645992
0.0654022
0.0665886
0.0681349
0.0700075
0.0721627
0.0745535
0.0771678
0.0801921
0.0609879
0.0613438
0.0620534
0.0631151
0.0645309
0.0663165
0.0685221
0.0712798
0.0749117
0.0801895
0.0580792
0.0583878
0.0590073
0.0599434
0.0612116
0.0628486
0.0649327
0.0676183
0.0711917
0.0761445
0.0554872
0.0557471
0.0562707
0.0570648
0.0581454
0.0595463
0.0613301
0.0636019
0.0665184
0.070267
0.0532373
0.0534462
0.0538668
0.0545015
0.055359
0.0564577
0.0578308
0.0595302
0.0616213
0.0641565
0.0513637
0.0515214
0.0518366
0.0523045
0.0529212
0.053685
0.0545978
0.0556681
0.0569129
0.058358
0.0499069
0.0500181
0.050236
0.0505475
0.0509339
0.0513696
0.0518216
0.0522518
0.0526268
0.0529523
0.0489076
0.0489829
0.0491251
0.0493131
0.0495136
0.0496762
0.049727
0.0495617
0.0490455
0.0480506
0.048399
0.0484553
0.0485561
0.048676
0.0487717
0.0487744
0.0485752
0.0479978
0.046747
0.0442975
0.0699437
0.0702278
0.0707845
0.0715938
0.0726167
0.0737831
0.0749623
0.0758977
0.0760543
0.0742522
0.0676427
0.0679227
0.0684767
0.069296
0.0703644
0.0716571
0.0731368
0.0747508
0.0764446
0.078255
0.0654792
0.0657564
0.066312
0.0671512
0.0682857
0.0697428
0.0715825
0.0739337
0.0770779
0.0816497
0.0634641
0.0637333
0.0642781
0.0651135
0.0662696
0.0678031
0.0698179
0.0724986
0.0761638
0.0813413
0.0616129
0.0618636
0.0623739
0.0631617
0.0642616
0.0657352
0.0676863
0.0702813
0.0737702
0.0784936
0.0599529
0.0601737
0.0606233
0.0613156
0.0622786
0.0635609
0.0652423
0.0674459
0.0703491
0.0741831
0.0585264
0.0587089
0.0590777
0.0596381
0.0604027
0.0613949
0.0626561
0.0642546
0.0662999
0.0689619
0.0573865
0.0575286
0.0578112
0.0582276
0.0587698
0.0594275
0.0601902
0.0610518
0.0620279
0.0632022
0.0565879
0.0566962
0.0569054
0.0571978
0.0575438
0.0578966
0.0581839
0.0582975
0.0580902
0.0574164
0.0561761
0.0562653
0.0564327
0.0566533
0.0568833
0.057049
0.057027
0.0566056
0.0554103
0.052746
0.0654077
0.0655992
0.0659759
0.0665288
0.0672383
0.0680669
0.0689418
0.069717
0.0700884
0.0693998
0.0641692
0.0643758
0.0647868
0.0654001
0.0662105
0.0672085
0.0683761
0.0696817
0.0710778
0.0725305
0.0629714
0.0631918
0.0636353
0.0643096
0.0652287
0.0664182
0.0679238
0.0698295
0.0722973
0.0756625
0.0618182
0.0620456
0.0625072
0.0632185
0.0642077
0.0655238
0.0672495
0.0695213
0.0725589
0.0767054
0.0607194
0.060943
0.061399
0.0621056
0.0630965
0.0644287
0.0661947
0.0685385
0.0716737
0.0758958
0.0596977
0.0599052
0.0603284
0.0609829
0.0618983
0.0631248
0.0647438
0.0668812
0.0697242
0.0735355
0.0587898
0.0589714
0.0593392
0.0599015
0.0606751
0.0616902
0.0629983
0.0646843
0.0668864
0.0698261
0.0580438
0.0581952
0.0584973
0.0589478
0.0595445
0.0602866
0.0611772
0.0622308
0.0634924
0.0650871
0.0575101
0.0576346
0.0578779
0.0582266
0.0586581
0.059136
0.0596028
0.0599705
0.060118
0.0599276
0.0572313
0.0573401
0.0575487
0.0578367
0.0581674
0.0584782
0.0586608
0.0585248
0.0577236
0.055599
0.0568467
0.0569883
0.0572697
0.057691
0.0582498
0.0589395
0.0597438
0.0606262
0.0615078
0.062222
0.0563351
0.0564942
0.0568127
0.0572937
0.0579411
0.058759
0.0597507
0.0609142
0.0622362
0.0636826
0.0558096
0.0559832
0.0563333
0.0568675
0.0575983
0.058545
0.0597371
0.0612176
0.0630498
0.0653346
0.0552725
0.0554549
0.0558249
0.0563938
0.0571814
0.0582197
0.059558
0.0612702
0.0634625
0.0662826
0.0547316
0.0549148
0.0552875
0.0558628
0.0566639
0.057729
0.0591178
0.0609199
0.0632643
0.0663276
0.0542035
0.0543788
0.054735
0.0552838
0.0560466
0.0570595
0.0583801
0.0600979
0.0623467
0.0653207
0.0537153
0.0538752
0.0541982
0.0546914
0.0553682
0.0562527
0.0573859
0.0588358
0.0607139
0.0632012
0.0533016
0.0534424
0.0537237
0.0541451
0.0547072
0.0554131
0.0562712
0.0573015
0.0585513
0.0601328
0.0529993
0.0531225
0.0533651
0.0537189
0.0541701
0.0546963
0.0552626
0.0558146
0.0562777
0.0565832
0.0528392
0.0529519
0.0531712
0.0534839
0.053866
0.0542764
0.054643
0.0548368
0.0546181
0.0535246
0.0458093
0.0459101
0.0461124
0.0464206
0.0468415
0.0473855
0.0480693
0.0489213
0.0499956
0.0514088
0.0457014
0.0458159
0.0460462
0.0463973
0.0468764
0.0474941
0.0482646
0.049204
0.0503248
0.0516127
0.0455604
0.0456851
0.0459366
0.0463204
0.0468448
0.0475216
0.0483653
0.04939
0.0505997
0.0519654
0.0453884
0.0455194
0.0457841
0.0461887
0.0467432
0.0474622
0.0483655
0.0494767
0.0508191
0.0524069
0.045192
0.0453248
0.0455934
0.0460045
0.0465693
0.0473056
0.0482394
0.0494073
0.0508581
0.0526551
0.0449827
0.0451128
0.0453755
0.0457769
0.0463281
0.047047
0.0479623
0.0491178
0.0505786
0.0524407
0.0447773
0.0449007
0.0451488
0.0455259
0.0460395
0.0467035
0.0475412
0.0485913
0.0499163
0.0516177
0.0445962
0.0447107
0.0449394
0.0452831
0.0457435
0.0463248
0.047036
0.0478944
0.0489341
0.0502262
0.0444603
0.0445665
0.0447767
0.0450879
0.0454949
0.0459898
0.0465602
0.047187
0.0478441
0.0485122
0.0443873
0.0444881
0.0446869
0.044978
0.0453513
0.0457894
0.0462617
0.0467114
0.0470295
0.0469997
0.0332919
0.0333503
0.0334684
0.0336501
0.0339031
0.0342404
0.0346867
0.0352887
0.0361416
0.0374526
0.0333498
0.0334165
0.0335511
0.0337567
0.0340387
0.0344058
0.0348705
0.0354501
0.0361623
0.0370039
0.0333767
0.0334491
0.0335944
0.0338146
0.0341124
0.0344907
0.0349508
0.0354866
0.0360711
0.0366224
0.0333758
0.0334517
0.0336036
0.0338327
0.0341402
0.0345265
0.0349894
0.0355193
0.0360905
0.0366474
0.0333522
0.0334299
0.0335855
0.0338197
0.0341337
0.0345286
0.0350045
0.0355589
0.0361841
0.036865
0.0333128
0.0333911
0.0335477
0.0337835
0.0341003
0.0345006
0.0349886
0.0355704
0.0362544
0.0370542
0.0332659
0.0333436
0.033499
0.0337329
0.0340473
0.0344457
0.0349347
0.0355251
0.036234
0.0370882
0.0332202
0.0332966
0.0334491
0.0336784
0.0339857
0.0343743
0.0348501
0.0354236
0.0361114
0.0369412
0.033184
0.0332589
0.0334082
0.0336319
0.0339305
0.0343055
0.0347601
0.0352994
0.0359316
0.0366709
0.0331639
0.0332376
0.0333847
0.0336046
0.0338971
0.0342624
0.0347006
0.0352103
0.0357852
0.0364065
0.0200598
0.0200804
0.0201217
0.0201848
0.0202725
0.020391
0.0205542
0.0207931
0.0211769
0.0218641
0.0201363
0.0201605
0.0202085
0.0202804
0.0203763
0.0204975
0.0206463
0.0208276
0.0210457
0.0212915
0.0201949
0.0202211
0.0202725
0.0203475
0.0204431
0.020554
0.0206704
0.0207736
0.0208241
0.0207351
0.0202376
0.0202652
0.0203188
0.0203957
0.0204906
0.0205945
0.0206922
0.0207571
0.0207432
0.0205733
0.0202677
0.0202967
0.0203529
0.0204333
0.0205319
0.0206394
0.0207405
0.0208113
0.0208143
0.0206952
0.0202884
0.0203192
0.0203792
0.0204655
0.0205732
0.0206946
0.0208179
0.0209256
0.0209914
0.0209783
0.0203026
0.0203355
0.0204
0.0204943
0.020615
0.0207574
0.020915
0.0210777
0.0212306
0.0213501
0.020312
0.020347
0.0204163
0.0205191
0.020654
0.0208201
0.0210166
0.0212426
0.0214958
0.0217683
0.0203177
0.0203545
0.0204278
0.0205376
0.020685
0.0208722
0.0211046
0.0213917
0.0217484
0.022193
0.0203204
0.020358
0.0204334
0.0205474
0.020702
0.0209022
0.0211579
0.0214879
0.0219271
0.0225432
0.00666835
0.00666902
0.00666968
0.00666917
0.00666577
0.00665752
0.00664299
0.00662339
0.00660802
0.00662826
0.00669833
0.00669961
0.00670129
0.0067016
0.00669767
0.00668524
0.00665821
0.0066078
0.00652065
0.00637286
0.00672293
0.00672446
0.00672629
0.00672592
0.00671899
0.0066985
0.00665319
0.00656474
0.00640212
0.00611002
0.00674307
0.00674482
0.00674682
0.00674602
0.00673703
0.00671107
0.00665412
0.00654383
0.00634452
0.00599989
0.00675983
0.00676207
0.00676497
0.00676527
0.00675726
0.00673177